 vasp.5.3.3 18Dez12 (build Mar 06 2013 10:35:37) complex                        
  
 executed on             LinuxIFC date 2014.10.20  09:08:31
 running on   48 total cores
 distrk:  each k-point on   48 cores,    1 groups
 distr:  one band on NCORES_PER_BAND=   1 cores,   48 groups


--------------------------------------------------------------------------------------------------------


 INCAR:
 POTCAR:    PAW_PBE H 15Jun2001                   

 ----------------------------------------------------------------------------- 
|                                                                             |
|           W    W    AA    RRRRR   N    N  II  N    N   GGGG   !!!           |
|           W    W   A  A   R    R  NN   N  II  NN   N  G    G  !!!           |
|           W    W  A    A  R    R  N N  N  II  N N  N  G       !!!           |
|           W WW W  AAAAAA  RRRRR   N  N N  II  N  N N  G  GGG   !            |
|           WW  WW  A    A  R   R   N   NN  II  N   NN  G    G                |
|           W    W  A    A  R    R  N    N  II  N    N   GGGG   !!!           |
|                                                                             |
|      For optimal performance we recommend that you set                      |
|        NPAR = 4 - approx SQRT( number of cores)                             |
|      (number of cores/NPAR must be integer)                                 |
|      This setting will greatly improve the performance of VASP for DFT.     |
|      The default NPAR=number of cores might be grossly inefficient          |
|      on modern multi-core architectures or massively parallel machines.     |
|      Do your own testing.                                                   |
|      Unfortunately you need to use the default for hybrid, GW and RPA       |
|      calculations.                                                          |
|                                                                             |
 ----------------------------------------------------------------------------- 

 POTCAR:    PAW_PBE H 15Jun2001                   
   VRHFIN =H: ultrasoft test                                                    
   LEXCH  = PE                                                                  
   EATOM  =    12.4884 eV,    0.9179 Ry                                         
                                                                                
   TITEL  = PAW_PBE H 15Jun2001                                                 
   LULTRA =        F    use ultrasoft PP ?                                      
   IUNSCR =        0    unscreen: 0-lin 1-nonlin 2-no                           
   RPACOR =    0.000    partial core radius                                     
   POMASS =    1.000; ZVAL   =    1.000    mass and valenz                      
   RCORE  =    1.100    outmost cutoff radius                                   
   RWIGS  =    0.700; RWIGS  =    0.370    wigner-seitz radius (au A)           
   ENMAX  =  250.000; ENMIN  =  200.000 eV                                      
   RCLOC  =    0.701    cutoff for local pot                                    
   LCOR   =        T    correct aug charges                                     
   LPAW   =        T    paw PP                                                  
   EAUG   =  400.000                                                            
   RMAX   =    1.123    core radius for proj-oper                               
   RAUG   =    1.200    factor for augmentation sphere                          
   RDEP   =    1.112    radius for radial grids                                 
   RDEPT  =    0.926    core radius for aug-charge                              
                                                                                
   Atomic configuration                                                         
    2 entries                                                                   
     n  l   j            E        occ.                                          
     1  0  0.50        -6.4927   1.0000                                         
     2  1  0.50        -3.4015   0.0000                                         
   Description                                                                  
     l       E           TYP  RCUT    TYP  RCUT                                 
     0     -6.4927494     23  1.100                                             
     0      6.8029130     23  1.100                                             
     1     -4.0817478     23  1.100                                             
  local pseudopotential read in
  atomic valenz-charges read in
  non local Contribution for L=           0  read in
    real space projection operators read in
  non local Contribution for L=           0  read in
    real space projection operators read in
  non local Contribution for L=           1  read in
    real space projection operators read in
    PAW grid and wavefunctions read in
 
   number of l-projection  operators is LMAX  =           3
   number of lm-projection operators is LMMAX =           5
 

 ----------------------------------------------------------------------------- 
|                                                                             |
|  ADVICE TO THIS USER RUNNING 'VASP/VAMP'   (HEAR YOUR MASTER'S VOICE ...):  |
|                                                                             |
|      You have a (more or less) 'small supercell' and for smaller cells      |
|      it is recommended  to use the reciprocal-space projection scheme!      |
|      The real space optimization is not  efficient for small cells and it   |
|      is also less accurate ...                                              |
|      Therefore set LREAL=.FALSE. in the  INCAR file                         |
|                                                                             |
 ----------------------------------------------------------------------------- 

 Optimization of the real space projectors (new method)

 maximal supplied QI-value         = 34.20
 optimisation between [QCUT,QGAM] = [ 11.63, 23.26] = [ 37.87,151.49] Ry 
 Optimized for a Real-space Cutoff    1.21 Angstroem

   l    n(q)    QCUT    max X(q) W(low)/X(q) W(high)/X(q)  e(spline) 
   0      8    11.629    19.460    0.17E-03    0.34E-03    0.21E-06
   0      8    11.629    12.209    0.16E-03    0.33E-03    0.21E-06
   1      8    11.629     4.655    0.18E-03    0.16E-03    0.26E-06
  PAW_PBE H 15Jun2001                   :
 energy of atom  1       EATOM=  -12.4884
 kinetic energy error for atom=    0.0014 (will be added to EATOM!!)
 
 
 POSCAR: H atom only                             
  positions in direct lattice
  velocities in cartesian coordinates
 exchange correlation table for  LEXCH =        8
   RHO(1)=    0.500       N(1)  =     2000
   RHO(2)=  100.500       N(2)  =     4000
 


--------------------------------------------------------------------------------------------------------


 ion  position               nearest neighbor table
   1  0.000  0.000  0.000-
 
  LATTYP: Found a hexagonal cell.
 ALAT       =    10.2313750982
 C/A-ratio  =     3.6565155755
  
  Lattice vectors:
  
 A1 = (  10.2313750981,   0.0000000000,   0.0000000000)
 A2 = (  -5.1156875490,   8.8606307507,   0.0000000000)
 A3 = (   0.0000000000,   0.0000000000,  37.4111824051)


Analysis of symmetry for initial positions (statically):
=====================================================================
 Subroutine PRICEL returns:
 Original cell was already a primitive cell.
 

 Routine SETGRP: Setting up the symmetry group for a 
 hexagonal supercell.


 Subroutine GETGRP returns: Found 24 space group operations
 (whereof 24 operations were pure point group operations)
 out of a pool of 24 trial point group operations.


The static configuration has the point symmetry D_6h.


Analysis of symmetry for dynamics (positions and initial velocities):
=====================================================================
 Subroutine PRICEL returns:
 Original cell was already a primitive cell.
 

 Routine SETGRP: Setting up the symmetry group for a 
 hexagonal supercell.


 Subroutine GETGRP returns: Found 24 space group operations
 (whereof 24 operations were pure point group operations)
 out of a pool of 24 trial point group operations.


The dynamic configuration has the point symmetry D_6h.


Analysis of constrained symmetry for selective dynamics:
=====================================================================
 Subroutine PRICEL returns:
 Original cell was already a primitive cell.
 

 Routine SETGRP: Setting up the symmetry group for a 
 hexagonal supercell.


 Subroutine GETGRP returns: Found 24 space group operations
 (whereof 24 operations were pure point group operations)
 out of a pool of 24 trial point group operations.


The constrained configuration has the point symmetry D_6h.


Analysis of magnetic symmetry:
=====================================================================

 Subroutine MAGSYM returns: Found 24 space group operations
 (whereof 24 operations were pure point group operations)
 out of a pool of 24 trial space group operations
 (whereof 24 operations were pure point group operations)
 and found also     1 'primitive' translations


The magnetic configuration has the point symmetry D_6h.


 irot  :   1
 --------------------------------------------------------------------
 isymop:   1   0   0
           0   1   0
           0   0   1

 gtrans:     0.0000000     0.0000000     0.0000000

 ptrans:     0.0000000     0.0000000     0.0000000
 rotmap:
 (   1->   1) 


 irot  :   2
 --------------------------------------------------------------------
 isymop:  -1   0   0
           0  -1   0
           0   0  -1

 gtrans:     0.0000000     0.0000000     0.0000000

 ptrans:     0.0000000     0.0000000     0.0000000
 rotmap:
 (   1->   1) 


 irot  :   3
 --------------------------------------------------------------------
 isymop:   1  -1   0
           1   0   0
           0   0   1

 gtrans:     0.0000000     0.0000000     0.0000000

 ptrans:     0.0000000     0.0000000     0.0000000
 rotmap:
 (   1->   1) 


 irot  :   4
 --------------------------------------------------------------------
 isymop:  -1   1   0
          -1   0   0
           0   0  -1

 gtrans:     0.0000000     0.0000000     0.0000000

 ptrans:     0.0000000     0.0000000     0.0000000
 rotmap:
 (   1->   1) 


 irot  :   5
 --------------------------------------------------------------------
 isymop:   0  -1   0
           1  -1   0
           0   0   1

 gtrans:     0.0000000     0.0000000     0.0000000

 ptrans:     0.0000000     0.0000000     0.0000000
 rotmap:
 (   1->   1) 


 irot  :   6
 --------------------------------------------------------------------
 isymop:   0   1   0
          -1   1   0
           0   0  -1

 gtrans:     0.0000000     0.0000000     0.0000000

 ptrans:     0.0000000     0.0000000     0.0000000
 rotmap:
 (   1->   1) 


 irot  :   7
 --------------------------------------------------------------------
 isymop:  -1   0   0
           0  -1   0
           0   0   1

 gtrans:     0.0000000     0.0000000     0.0000000

 ptrans:     0.0000000     0.0000000     0.0000000
 rotmap:
 (   1->   1) 


 irot  :   8
 --------------------------------------------------------------------
 isymop:   1   0   0
           0   1   0
           0   0  -1

 gtrans:     0.0000000     0.0000000     0.0000000

 ptrans:     0.0000000     0.0000000     0.0000000
 rotmap:
 (   1->   1) 


 irot  :   9
 --------------------------------------------------------------------
 isymop:  -1   1   0
          -1   0   0
           0   0   1

 gtrans:     0.0000000     0.0000000     0.0000000

 ptrans:     0.0000000     0.0000000     0.0000000
 rotmap:
 (   1->   1) 


 irot  :  10
 --------------------------------------------------------------------
 isymop:   1  -1   0
           1   0   0
           0   0  -1

 gtrans:     0.0000000     0.0000000     0.0000000

 ptrans:     0.0000000     0.0000000     0.0000000
 rotmap:
 (   1->   1) 


 irot  :  11
 --------------------------------------------------------------------
 isymop:   0   1   0
          -1   1   0
           0   0   1

 gtrans:     0.0000000     0.0000000     0.0000000

 ptrans:     0.0000000     0.0000000     0.0000000
 rotmap:
 (   1->   1) 


 irot  :  12
 --------------------------------------------------------------------
 isymop:   0  -1   0
           1  -1   0
           0   0  -1

 gtrans:     0.0000000     0.0000000     0.0000000

 ptrans:     0.0000000     0.0000000     0.0000000
 rotmap:
 (   1->   1) 


 irot  :  13
 --------------------------------------------------------------------
 isymop:   1  -1   0
           0  -1   0
           0   0  -1

 gtrans:     0.0000000     0.0000000     0.0000000

 ptrans:     0.0000000     0.0000000     0.0000000
 rotmap:
 (   1->   1) 


 irot  :  14
 --------------------------------------------------------------------
 isymop:  -1   1   0
           0   1   0
           0   0   1

 gtrans:     0.0000000     0.0000000     0.0000000

 ptrans:     0.0000000     0.0000000     0.0000000
 rotmap:
 (   1->   1) 


 irot  :  15
 --------------------------------------------------------------------
 isymop:   0  -1   0
          -1   0   0
           0   0  -1

 gtrans:     0.0000000     0.0000000     0.0000000

 ptrans:     0.0000000     0.0000000     0.0000000
 rotmap:
 (   1->   1) 


 irot  :  16
 --------------------------------------------------------------------
 isymop:   0   1   0
           1   0   0
           0   0   1

 gtrans:     0.0000000     0.0000000     0.0000000

 ptrans:     0.0000000     0.0000000     0.0000000
 rotmap:
 (   1->   1) 


 irot  :  17
 --------------------------------------------------------------------
 isymop:  -1   0   0
          -1   1   0
           0   0  -1

 gtrans:     0.0000000     0.0000000     0.0000000

 ptrans:     0.0000000     0.0000000     0.0000000
 rotmap:
 (   1->   1) 


 irot  :  18
 --------------------------------------------------------------------
 isymop:   1   0   0
           1  -1   0
           0   0   1

 gtrans:     0.0000000     0.0000000     0.0000000

 ptrans:     0.0000000     0.0000000     0.0000000
 rotmap:
 (   1->   1) 


 irot  :  19
 --------------------------------------------------------------------
 isymop:  -1   1   0
           0   1   0
           0   0  -1

 gtrans:     0.0000000     0.0000000     0.0000000

 ptrans:     0.0000000     0.0000000     0.0000000
 rotmap:
 (   1->   1) 


 irot  :  20
 --------------------------------------------------------------------
 isymop:   1  -1   0
           0  -1   0
           0   0   1

 gtrans:     0.0000000     0.0000000     0.0000000

 ptrans:     0.0000000     0.0000000     0.0000000
 rotmap:
 (   1->   1) 


 irot  :  21
 --------------------------------------------------------------------
 isymop:   0   1   0
           1   0   0
           0   0  -1

 gtrans:     0.0000000     0.0000000     0.0000000

 ptrans:     0.0000000     0.0000000     0.0000000
 rotmap:
 (   1->   1) 


 irot  :  22
 --------------------------------------------------------------------
 isymop:   0  -1   0
          -1   0   0
           0   0   1

 gtrans:     0.0000000     0.0000000     0.0000000

 ptrans:     0.0000000     0.0000000     0.0000000
 rotmap:
 (   1->   1) 


 irot  :  23
 --------------------------------------------------------------------
 isymop:   1   0   0
           1  -1   0
           0   0  -1

 gtrans:     0.0000000     0.0000000     0.0000000

 ptrans:     0.0000000     0.0000000     0.0000000
 rotmap:
 (   1->   1) 


 irot  :  24
 --------------------------------------------------------------------
 isymop:  -1   0   0
          -1   1   0
           0   0   1

 gtrans:     0.0000000     0.0000000     0.0000000

 ptrans:     0.0000000     0.0000000     0.0000000
 rotmap:
 (   1->   1) 
 
 
 KPOINTS: kpoints                                 

Automatic generation of k-mesh.
Space group operators:
 irot       det(A)        alpha          n_x          n_y          n_z        tau_x        tau_y        tau_z
    1     1.000000     0.000000     1.000000     0.000000     0.000000     0.000000     0.000000     0.000000
    2    -1.000000     0.000000     1.000000     0.000000     0.000000     0.000000     0.000000     0.000000
    3     1.000000    60.000000     0.000000     0.000000    -1.000000     0.000000     0.000000     0.000000
    4    -1.000000    60.000000     0.000000     0.000000    -1.000000     0.000000     0.000000     0.000000
    5     1.000000   120.000000     0.000000     0.000000    -1.000000     0.000000     0.000000     0.000000
    6    -1.000000   120.000000     0.000000     0.000000    -1.000000     0.000000     0.000000     0.000000
    7     1.000000   179.999999     0.000000     0.000000     1.000000     0.000000     0.000000     0.000000
    8    -1.000000   179.999999     0.000000     0.000000     1.000000     0.000000     0.000000     0.000000
    9     1.000000   120.000000     0.000000     0.000000     1.000000     0.000000     0.000000     0.000000
   10    -1.000000   120.000000     0.000000     0.000000     1.000000     0.000000     0.000000     0.000000
   11     1.000000    60.000000     0.000000     0.000000     1.000000     0.000000     0.000000     0.000000
   12    -1.000000    60.000000     0.000000     0.000000     1.000000     0.000000     0.000000     0.000000
   13     1.000000   180.000000     1.000000     0.000000     0.000000     0.000000     0.000000     0.000000
   14    -1.000000   180.000000     1.000000     0.000000     0.000000     0.000000     0.000000     0.000000
   15     1.000000   180.000000     0.866025    -0.500000     0.000000     0.000000     0.000000     0.000000
   16    -1.000000   180.000000     0.866025    -0.500000     0.000000     0.000000     0.000000     0.000000
   17     1.000000   180.000000     0.500000    -0.866025     0.000000     0.000000     0.000000     0.000000
   18    -1.000000   180.000000     0.500000    -0.866025     0.000000     0.000000     0.000000     0.000000
   19     1.000000   180.000000     0.000000     1.000000     0.000000     0.000000     0.000000     0.000000
   20    -1.000000   180.000000     0.000000     1.000000     0.000000     0.000000     0.000000     0.000000
   21     1.000000   180.000000    -0.500000    -0.866025     0.000000     0.000000     0.000000     0.000000
   22    -1.000000   180.000000    -0.500000    -0.866025     0.000000     0.000000     0.000000     0.000000
   23     1.000000   180.000000     0.866025     0.500000     0.000000     0.000000     0.000000     0.000000
   24    -1.000000   180.000000     0.866025     0.500000     0.000000     0.000000     0.000000     0.000000
 
 Subroutine IBZKPT returns following result:
 ===========================================
 
 Found      3 irreducible k-points:
 
 Following reciprocal coordinates:
            Coordinates               Weight
  0.000000  0.000000  0.000000      1.000000
  0.333333  0.000000  0.000000      6.000000
  0.333333  0.333333  0.000000      2.000000
 
 Following cartesian coordinates:
            Coordinates               Weight
  0.000000  0.000000  0.000000      1.000000
  0.032580  0.018810  0.000000      6.000000
  0.032580  0.056429  0.000000      2.000000
 


--------------------------------------------------------------------------------------------------------




 Dimension of arrays:
   k-points           NKPTS =      3   k-points in BZ     NKDIM =      3   number of bands    NBANDS=     48
   number of dos      NEDOS =    301   number of ions     NIONS =      1
   non local maximal  LDIM  =      3   non local SUM 2l+1 LMDIM =      5
   total plane-waves  NPLWV = ******
   max r-space proj   IRMAX =   3978   max aug-charges    IRDMAX=  20742
   dimension x,y,z NGX =    80 NGY =   80 NGZ =  280
   dimension x,y,z NGXF=   160 NGYF=  160 NGZF=  560
   support grid    NGXF=   320 NGYF=  320 NGZF= 1120
   ions per type =               1
 NGX,Y,Z   is equivalent  to a cutoff of  13.00, 13.00, 12.44 a.u.
 NGXF,Y,Z  is equivalent  to a cutoff of  26.00, 26.00, 24.88 a.u.


 I would recommend the setting:
   dimension x,y,z NGX =    76 NGY =   76 NGZ =  278
 SYSTEM =  fe2O3 (0001) surface scan               
 POSCAR =  H atom only                             

 Startparameter for this run:
   NWRITE =      2    write-flag & timer
   PREC   = accura    normal or accurate (medium, high low for compatibility)
   ISTART =      1    job   : 0-new  1-cont  2-samecut
   ICHARG =      1    charge: 1-file 2-atom 10-const
   ISPIN  =      2    spin polarized calculation?
   LNONCOLLINEAR =      F non collinear calculations
   LSORBIT =      F    spin-orbit coupling
   INIWAV =      1    electr: 0-lowe 1-rand  2-diag
   LASPH  =      T    aspherical Exc in radial PAW
   METAGGA=      F    non-selfconsistent MetaGGA calc.

 Electronic Relaxation 1
   ENCUT  =  520.0 eV  38.22 Ry    6.18 a.u.  19.02 19.02 69.56*2*pi/ulx,y,z
   ENINI  =  520.0     initial cutoff
   ENAUG  =  400.0 eV  augmentation charge cutoff
   NELM   =    200;   NELMIN=  5; NELMDL=  0     # of ELM steps 
   EDIFF  = 0.1E-04   stopping-criterion for ELM
   LREAL  =      T    real-space projection
   NLSPLINE    = F    spline interpolate recip. space projectors
   LCOMPAT=      F    compatible to vasp.4.4
   GGA_COMPAT  = T    GGA compatible to vasp.4.4-vasp.4.6
   LMAXPAW     = -100 max onsite density
   LMAXMIX     =    4 max onsite mixed and CHGCAR
   VOSKOWN=      1    Vosko Wilk Nusair interpolation
   ROPT   =   -0.00025
 Ionic relaxation
   EDIFFG = -.1E-01   stopping-criterion for IOM
   NSW    =     50    number of steps for IOM
   NBLOCK =      1;   KBLOCK =     50    inner block; outer block 
   IBRION =     -1    ionic relax: 0-MD 1-quasi-New 2-CG
   NFREE  =      0    steps in history (QN), initial steepest desc. (CG)
   ISIF   =      2    stress and relaxation
   IWAVPR =     10    prediction:  0-non 1-charg 2-wave 3-comb
   ISYM   =      2    0-nonsym 1-usesym 2-fastsym
   LCORR  =      T    Harris-Foulkes like correction to forces

   POTIM  = 0.1000    time-step for ionic-motion
   TEIN   =    0.0    initial temperature
   TEBEG  =    0.0;   TEEND  =   0.0 temperature during run
   SMASS  =  -3.00    Nose mass-parameter (am)
   estimated Nose-frequenzy (Omega)   =  0.10E-29 period in steps =****** mass=  -0.239E-26a.u.
   SCALEE = 1.0000    scale energy and forces
   NPACO  =    256;   APACO  = 16.0  distance and # of slots for P.C.
   PSTRESS=    0.0 pullay stress

  Mass of Ions in am
   POMASS =   1.00
  Ionic Valenz
   ZVAL   =   1.00
  Atomic Wigner-Seitz radii
   RWIGS  =  -1.00
  virtual crystal weights 
   VCA    =   1.00
   NELECT =       1.0000    total number of electrons
   NUPDOWN=       1.0000    fix difference up-down

 DOS related values:
   EMIN   =  10.00;   EMAX   =-10.00  energy-range for DOS
   EFERMI =   0.00
   ISMEAR =     0;   SIGMA  =   0.10  broadening in eV -4-tet -1-fermi 0-gaus

 Electronic relaxation 2 (details)
   IALGO  =     68    algorithm
   LDIAG  =      T    sub-space diagonalisation (order eigenvalues)
   LSUBROT=      T    optimize rotation matrix (better conditioning)
   TURBO    =      0    0=normal 1=particle mesh
   IRESTART =      0    0=no restart 2=restart with 2 vectors
   NREBOOT  =      0    no. of reboots
   NMIN     =      0    reboot dimension
   EREF     =   0.00    reference energy to select bands
   IMIX   =      4    mixing-type and parameters
     AMIX     =   0.01;   BMIX     =  0.00
     AMIX_MAG =   0.80;   BMIX_MAG =  0.00
     AMIN     =   0.01
     WC   =   100.;   INIMIX=   1;  MIXPRE=   1;  MAXMIX=  30

 Intra band minimization:
   WEIMIN = 0.0000     energy-eigenvalue tresh-hold
   EBREAK =  0.52E-07  absolut break condition
   DEPER  =   0.30     relativ break condition  

   TIME   =   0.40     timestep for ELM

  volume/ion in A,a.u.               =    3391.56     22887.41
  Fermi-wavevector in a.u.,A,eV,Ry     =   0.108962  0.205908  0.161538  0.011873
  Thomas-Fermi vector in A             =   0.703868
 
 Write flags
   LWAVE  =      F    write WAVECAR
   LCHARG =      F    write CHGCAR
   LVTOT  =      F    write LOCPOT, total local potential
   LVHAR  =      F    write LOCPOT, Hartree potential only
   LELF   =      F    write electronic localiz. function (ELF)
   LORBIT =      0    0 simple, 1 ext, 2 COOP (PROOUT)


 Dipole corrections
   LMONO  =      F    monopole corrections only (constant potential shift)
   LDIPOL =      F    correct potential (dipole corrections)
   IDIPOL =      0    1-x, 2-y, 3-z, 4-all directions 
   EPSILON=  1.0000000 bulk dielectric constant

 LDA+U is selected, type is set to LDAUTYPE =  2
   angular momentum for each species LDAUL =     0
   U (eV)           for each species LDAUU =   0.0
   J (eV)           for each species LDAUJ =   0.0
 Exchange correlation treatment:
   GGA     =    --    GGA type
   LEXCH   =     8    internal setting for exchange type
   VOSKOWN=      1    Vosko Wilk Nusair interpolation
   LHFCALC =     F    Hartree Fock is set to
   LHFONE  =     F    Hartree Fock one center treatment
   AEXX    =    0.0000 exact exchange contribution

 Linear response parameters
   LEPSILON=     F    determine dielectric tensor
   LRPA    =     F    only Hartree local field effects (RPA)
   LNABLA  =     F    use nabla operator in PAW spheres
   LVEL    =     F    velocity operator in full k-point grid
   LINTERFAST=   F  fast interpolation
   KINTER  =     0    interpolate to denser k-point grid
   CSHIFT  =0.1000    complex shift for real part using Kramers Kronig
   OMEGAMAX=  -1.0    maximum frequency
   DEG_THRESHOLD= 0.2000000E-02 threshold for treating states as degnerate
   RTIME   =    0.100 relaxation time in fs

 Orbital magnetization related:
   ORBITALMAG=     F  switch on orbital magnetization
   LCHIMAG   =     F  perturbation theory with respect to B field
   DQ        =  0.001000  dq finite difference perturbation B field



--------------------------------------------------------------------------------------------------------


 Static calculation
 charge density and potential will be updated during run
 spin polarized calculation
 RMM-DIIS sequential band-by-band and
  variant of blocked Davidson during initial phase
 perform sub-space diagonalisation
    before iterative eigenvector-optimisation
 modified Broyden-mixing scheme, WC =      100.0
 initial mixing is a Kerker type mixing with AMIX =  0.0100 and BMIX =      0.0001
 Hartree-type preconditioning will be used
 using additional bands           47
 real space projection scheme for non local part
 calculate Harris-corrections to forces 
   (improved forces if not selfconsistent)
 use gradient corrections 
 use of overlap-Matrix (Vanderbilt PP)
 Gauss-broadening in eV      SIGMA  =   0.10


--------------------------------------------------------------------------------------------------------


  energy-cutoff  :      520.00
  volume of cell :     3391.56
      direct lattice vectors                 reciprocal lattice vectors
    10.231375098  0.000000000  0.000000000     0.097738573  0.056429391  0.000000000
    -5.115687549  8.860630751  0.000000000     0.000000000  0.112858783  0.000000000
     0.000000000  0.000000000 37.411182405     0.000000000  0.000000000  0.026729976

  length of vectors
    10.231375098 10.231375098 37.411182405     0.112858783  0.112858783  0.026729976


 
 old parameters found on file WAVECAR:
  energy-cutoff  :      520.00
  volume of cell :     3391.56
      direct lattice vectors                 reciprocal lattice vectors
    10.231375098  0.000000000  0.000000000     0.097738573  0.056429391  0.000000000
    -5.115687549  8.860630751  0.000000000     0.000000000  0.112858783  0.000000000
     0.000000000  0.000000000 37.411182405     0.000000000  0.000000000  0.026729976

  length of vectors

 
 k-points in units of 2pi/SCALE and weight: kpoints                                 
   0.00000000  0.00000000  0.00000000       0.111
   0.03257952  0.01880980  0.00000000       0.667
   0.03257952  0.05642939  0.00000000       0.222
 
 k-points in reciprocal lattice and weights: kpoints                                 
   0.00000000  0.00000000  0.00000000       0.111
   0.33333333  0.00000000  0.00000000       0.667
   0.33333333  0.33333333  0.00000000       0.222
 
 position of ions in fractional coordinates (direct lattice) 
   0.00000000  0.00000000  0.00000000
 
 position of ions in cartesian coordinates  (Angst):
   0.00000000  0.00000000  0.00000000
 


--------------------------------------------------------------------------------------------------------


 k-point  1 :   0.0000 0.0000 0.0000  plane waves:   91045
 k-point  2 :   0.3333 0.0000 0.0000  plane waves:   91327
 k-point  3 :   0.3333 0.3333 0.0000  plane waves:   91329

 maximum and minimum number of plane-waves per node :     91329    91045

 maximum number of plane-waves:     91329
 maximum index in each direction: 
   IXMAX=   19   IYMAX=   19   IZMAX=   69
   IXMIN=  -19   IYMIN=  -19   IZMIN=  -69

 NGX is ok and might be reduce to  78
 NGY is ok and might be reduce to  78
 NGZ is ok and might be reduce to 278

 serial   3D FFT for wavefunctions
 parallel 3D FFT for charge:
    minimum data exchange during FFTs selected (reduces bandwidth)


 total amount of memory used by VASP on root node   261432. kBytes
========================================================================

   base      :      30000. kBytes
   nonlr-proj:        229. kBytes
   fftplans  :      52987. kBytes
   grid      :     169441. kBytes
   one-center:          2. kBytes
   wavefun   :       8773. kBytes
 
 Broyden mixing: mesh for mixing (old mesh)
   NGX = 39   NGY = 39   NGZ =139
  (NGX  =160   NGY  =160   NGZ  =560)
  gives a total of 211419 points

 initial charge density was supplied:
 number of electron       1.0000000 magnetization       1.0000000
 keeping initial charge density in first step


--------------------------------------------------------------------------------------------------------


 Maximum index for non-local projection operator         3737
 Maximum index for augmentation-charges          799 (set IRDMAX)


--------------------------------------------------------------------------------------------------------


 First call to EWALD:  gamma=   0.118
 Maximum number of real-space cells 4x 4x 1
 Maximum number of reciprocal cells 2x 2x 6

 FEWALD executed in parallel
    FEWALD:  cpu time    0.00: real time    0.00


----------------------------------------- Iteration    1(   1)  ---------------------------------------


    POTLOK:  cpu time    1.43: real time    1.43
    SETDIJ:  cpu time    0.88: real time    0.88
     EDDAV:  cpu time    4.90: real time    4.91
       DOS:  cpu time    0.00: real time    0.00
    CHARGE:  cpu time    1.70: real time    1.70
    MIXING:  cpu time    0.04: real time    0.04
    --------------------------------------------
      LOOP:  cpu time    8.96: real time    8.98

 eigenvalue-minimisations  :   480
 total energy-change (2. order) :-0.1117204E+01  ( 0.2219651E-09)
 number of electron       1.0000000 magnetization       1.0000000
 augmentation part        0.0152414 magnetization       0.0152414

 Broyden mixing:
  rms(total) = 0.46942E-06    rms(broyden)= 0.46359E-06
  rms(prec ) = 0.47312E-06
  weight for this iteration     100.00

 Free energy of the ion-electron system (eV)
  ---------------------------------------------------
  alpha Z        PSCENC =         0.00071830
  Ewald energy   TEWEN  =         0.14639535
  -1/2 Hartree   DENC   =        -8.48952250
  -exchange  EXHF       =         0.00000000
  -V(xc)+E(xc)   XCENC  =         2.33497194
  PAW double counting   =         2.13443855       -2.14458553
  entropy T*S    EENTRO =         0.00000000
  eigenvalues    EBANDS =        -7.58659141
  atomic energy  EATOM  =        12.48697088
  ---------------------------------------------------
  free energy    TOTEN  =        -1.11720443 eV

  energy without entropy =       -1.11720443  energy(sigma->0) =       -1.11720443


--------------------------------------------------------------------------------------------------------




----------------------------------------- Iteration    1(   2)  ---------------------------------------


    POTLOK:  cpu time    1.40: real time    1.40
    SETDIJ:  cpu time    0.88: real time    0.88
    EDDIAG:  cpu time    1.29: real time    1.29
  RMM-DIIS:  cpu time    3.22: real time    3.22
    ORTHCH:  cpu time    0.12: real time    0.12
       DOS:  cpu time    0.01: real time    0.00
    CHARGE:  cpu time    1.71: real time    1.71
    MIXING:  cpu time    0.04: real time    0.04
    --------------------------------------------
      LOOP:  cpu time    8.68: real time    8.69

 eigenvalue-minimisations  :   288
 total energy-change (2. order) : 0.6688354E-05  ( 0.0000000E+00)
 number of electron       1.0000000 magnetization       1.0000000
 augmentation part        0.0152414 magnetization       0.0152414

 Broyden mixing:
  rms(total) = 0.37333E-06    rms(broyden)= 0.36600E-06
  rms(prec ) = 0.37956E-06
  weight for this iteration     100.00

 eigenvalues of (default mixing * dielectric matrix)
  average eigenvalue GAMMA=   1.3877
  1.3877

 Free energy of the ion-electron system (eV)
  ---------------------------------------------------
  alpha Z        PSCENC =         0.00071830
  Ewald energy   TEWEN  =         0.14639535
  -1/2 Hartree   DENC   =        -8.48952255
  -exchange  EXHF       =         0.00000000
  -V(xc)+E(xc)   XCENC  =         2.33497808
  PAW double counting   =         2.13443587       -2.14458256
  entropy T*S    EENTRO =         0.00000000
  eigenvalues    EBANDS =        -7.58659110
  atomic energy  EATOM  =        12.48697088
  ---------------------------------------------------
  free energy    TOTEN  =        -1.11719774 eV

  energy without entropy =       -1.11719774  energy(sigma->0) =       -1.11719774


--------------------------------------------------------------------------------------------------------




----------------------------------------- Iteration    1(   3)  ---------------------------------------


    POTLOK:  cpu time    1.41: real time    1.41
    SETDIJ:  cpu time    0.88: real time    0.88
    EDDIAG:  cpu time    1.28: real time    1.28
  RMM-DIIS:  cpu time    3.34: real time    3.36
    ORTHCH:  cpu time    0.12: real time    0.12
       DOS:  cpu time    0.00: real time    0.00
    CHARGE:  cpu time    1.70: real time    1.70
    MIXING:  cpu time    0.04: real time    0.04
    --------------------------------------------
      LOOP:  cpu time    8.79: real time    8.81

 eigenvalue-minimisations  :   288
 total energy-change (2. order) : 0.2329580E-05  ( 0.0000000E+00)
 number of electron       1.0000000 magnetization       1.0000000
 augmentation part        0.0152414 magnetization       0.0152414

 Broyden mixing:
  rms(total) = 0.36417E-06    rms(broyden)= 0.35666E-06
  rms(prec ) = 0.37069E-06
  weight for this iteration     100.00

 eigenvalues of (default mixing * dielectric matrix)
  average eigenvalue GAMMA=   2.1265
  1.4263  2.8266

 Free energy of the ion-electron system (eV)
  ---------------------------------------------------
  alpha Z        PSCENC =         0.00071830
  Ewald energy   TEWEN  =         0.14639535
  -1/2 Hartree   DENC   =        -8.48952263
  -exchange  EXHF       =         0.00000000
  -V(xc)+E(xc)   XCENC  =         2.33498019
  PAW double counting   =         2.13443474       -2.14458133
  entropy T*S    EENTRO =         0.00000000
  eigenvalues    EBANDS =        -7.58659091
  atomic energy  EATOM  =        12.48697088
  ---------------------------------------------------
  free energy    TOTEN  =        -1.11719541 eV

  energy without entropy =       -1.11719541  energy(sigma->0) =       -1.11719541


--------------------------------------------------------------------------------------------------------




----------------------------------------- Iteration    1(   4)  ---------------------------------------


    POTLOK:  cpu time    1.42: real time    1.42
    SETDIJ:  cpu time    0.88: real time    0.88
    EDDIAG:  cpu time    1.28: real time    1.28
  RMM-DIIS:  cpu time    2.98: real time    2.98
    ORTHCH:  cpu time    0.12: real time    0.12
       DOS:  cpu time    0.00: real time    0.00
    CHARGE:  cpu time    1.69: real time    1.69
    MIXING:  cpu time    0.04: real time    0.04
    --------------------------------------------
      LOOP:  cpu time    8.41: real time    8.42

 eigenvalue-minimisations  :   281
 total energy-change (2. order) :-0.7286361E-05  ( 0.0000000E+00)
 number of electron       1.0000000 magnetization       1.0000000
 augmentation part        0.0152414 magnetization       0.0152414

 Broyden mixing:
  rms(total) = 0.21704E-06    rms(broyden)= 0.20419E-06
  rms(prec ) = 0.21074E-06
  weight for this iteration     100.00

 eigenvalues of (default mixing * dielectric matrix)
  average eigenvalue GAMMA=  31.4170
 91.7348  1.2528  1.2634

 Free energy of the ion-electron system (eV)
  ---------------------------------------------------
  alpha Z        PSCENC =         0.00071830
  Ewald energy   TEWEN  =         0.14639535
  -1/2 Hartree   DENC   =        -8.48952491
  -exchange  EXHF       =         0.00000000
  -V(xc)+E(xc)   XCENC  =         2.33497435
  PAW double counting   =         2.13443863       -2.14458555
  entropy T*S    EENTRO =         0.00000000
  eigenvalues    EBANDS =        -7.58658975
  atomic energy  EATOM  =        12.48697088
  ---------------------------------------------------
  free energy    TOTEN  =        -1.11720269 eV

  energy without entropy =       -1.11720269  energy(sigma->0) =       -1.11720269


--------------------------------------------------------------------------------------------------------




----------------------------------------- Iteration    1(   5)  ---------------------------------------


    POTLOK:  cpu time    1.40: real time    1.40
    SETDIJ:  cpu time    0.88: real time    0.88
    EDDIAG:  cpu time    1.28: real time    1.28
  RMM-DIIS:  cpu time    3.32: real time    3.32
    ORTHCH:  cpu time    0.12: real time    0.12
       DOS:  cpu time    0.00: real time    0.00
    --------------------------------------------
      LOOP:  cpu time    7.01: real time    7.01

 eigenvalue-minimisations  :   292
 total energy-change (2. order) :-0.3160444E-05  ( 0.0000000E+00)
 number of electron       1.0000000 magnetization       1.0000000
 augmentation part        0.0152414 magnetization       0.0152414

 Free energy of the ion-electron system (eV)
  ---------------------------------------------------
  alpha Z        PSCENC =         0.00071830
  Ewald energy   TEWEN  =         0.14639535
  -1/2 Hartree   DENC   =        -8.48952795
  -exchange  EXHF       =         0.00000000
  -V(xc)+E(xc)   XCENC  =         2.33497215
  PAW double counting   =         2.13444469       -2.14459182
  entropy T*S    EENTRO =         0.00000000
  eigenvalues    EBANDS =        -7.58658746
  atomic energy  EATOM  =        12.48697088
  ---------------------------------------------------
  free energy    TOTEN  =        -1.11720585 eV

  energy without entropy =       -1.11720585  energy(sigma->0) =       -1.11720585


--------------------------------------------------------------------------------------------------------




 average (electrostatic) potential at core
  the test charge radii are     0.5201
  (the norm of the test charge is              1.0000)
       1 -14.6538
 
 
 
 E-fermi :  -8.6082     XC(G=0):  -0.0430     alpha+bet : -0.0081


 spin component 1

 k-point   1 :       0.0000    0.0000    0.0000
  band No.  band energies     occupation 
      1      -7.5866      1.00000
      2      -0.1929      0.00000
      3       0.0432      0.00000
      4       0.0547      0.00000
      5       0.2961      0.00000
      6       0.3714      0.00000
      7       0.7763      0.00000
      8       0.8934      0.00000
      9       0.8934      0.00000
     10       0.9109      0.00000
     11       1.4163      0.00000
     12       1.6309      0.00000
     13       1.7169      0.00000
     14       1.7170      0.00000
     15       1.8034      0.00000
     16       1.8552      0.00000
     17       1.8772      0.00000
     18       1.9549      0.00000
     19       1.9557      0.00000
     20       1.9608      0.00000
     21       1.9616      0.00000
     22       1.9683      0.00000
     23       1.9690      0.00000
     24       1.9805      0.00000
     25       1.9855      0.00000
     26       2.0113      0.00000
     27       2.0125      0.00000
     28       2.0216      0.00000
     29       2.1175      0.00000
     30       2.2120      0.00000
     31       2.2128      0.00000
     32       2.2242      0.00000
     33       2.2249      0.00000
     34       2.2776      0.00000
     35       2.2786      0.00000
     36       2.3084      0.00000
     37       2.3089      0.00000
     38       2.3115      0.00000
     39       2.3281      0.00000
     40       2.3304      0.00000
     41       2.4762      0.00000
     42       2.6228      0.00000
     43       2.7098      0.00000
     44       2.7104      0.00000
     45       2.7218      0.00000
     46       2.7320      0.00000
     47       2.7329      0.00000
     48       2.8161      0.00000

 k-point   2 :       0.3333    0.0000    0.0000
  band No.  band energies     occupation 
      1      -7.5866      1.00000
      2      -0.0222      0.00000
      3       0.2442      0.00000
      4       0.2642      0.00000
      5       0.4677      0.00000
      6       0.4875      0.00000
      7       0.5862      0.00000
      8       0.7524      0.00000
      9       0.8613      0.00000
     10       0.8977      0.00000
     11       0.9974      0.00000
     12       1.1111      0.00000
     13       1.1889      0.00000
     14       1.1979      0.00000
     15       1.3307      0.00000
     16       1.4916      0.00000
     17       1.5308      0.00000
     18       1.5459      0.00000
     19       1.5644      0.00000
     20       1.6345      0.00000
     21       1.6851      0.00000
     22       1.7902      0.00000
     23       1.7950      0.00000
     24       1.8378      0.00000
     25       1.8532      0.00000
     26       1.8747      0.00000
     27       1.8829      0.00000
     28       2.1619      0.00000
     29       2.2091      0.00000
     30       2.2480      0.00000
     31       2.3456      0.00000
     32       2.4252      0.00000
     33       2.4274      0.00000
     34       2.4739      0.00000
     35       2.5798      0.00000
     36       2.6787      0.00000
     37       2.7864      0.00000
     38       2.8110      0.00000
     39       2.8122      0.00000
     40       2.8434      0.00000
     41       2.8525      0.00000
     42       2.9767      0.00000
     43       3.0268      0.00000
     44       3.0320      0.00000
     45       3.0598      0.00000
     46       3.1238      0.00000
     47       3.1267      0.00000
     48       3.1458      0.00000

 k-point   3 :       0.3333    0.3333    0.0000
  band No.  band energies     occupation 
      1      -7.5866      1.00000
      2       0.2873      0.00000
      3       0.2874      0.00000
      4       0.3666      0.00000
      5       0.4986      0.00000
      6       0.6850      0.00000
      7       0.6855      0.00000
      8       0.6906      0.00000
      9       0.7318      0.00000
     10       0.7325      0.00000
     11       0.8489      0.00000
     12       0.9727      0.00000
     13       0.9733      0.00000
     14       1.0059      0.00000
     15       1.0240      0.00000
     16       1.0243      0.00000
     17       1.3305      0.00000
     18       1.4771      0.00000
     19       1.4775      0.00000
     20       1.5414      0.00000
     21       1.5418      0.00000
     22       1.5423      0.00000
     23       1.8892      0.00000
     24       1.8893      0.00000
     25       2.0249      0.00000
     26       2.2323      0.00000
     27       2.2807      0.00000
     28       2.2813      0.00000
     29       2.3064      0.00000
     30       2.3067      0.00000
     31       2.4823      0.00000
     32       2.5963      0.00000
     33       2.5968      0.00000
     34       2.6208      0.00000
     35       2.6217      0.00000
     36       2.6291      0.00000
     37       2.6297      0.00000
     38       2.8256      0.00000
     39       2.8567      0.00000
     40       2.8573      0.00000
     41       2.8983      0.00000
     42       2.8987      0.00000
     43       2.9499      0.00000
     44       3.0354      0.00000
     45       3.1877      0.00000
     46       3.1881      0.00000
     47       3.2110      0.00000
     48       3.2399      0.00000

 spin component 2

 k-point   1 :       0.0000    0.0000    0.0000
  band No.  band energies     occupation 
      1       0.0202      0.00000
      2       0.1160      0.00000
      3       0.1498      0.00000
      4       0.4409      0.00000
      5       0.4717      0.00000
      6       0.9817      0.00000
      7       1.0027      0.00000
      8       1.7369      0.00000
      9       1.7426      0.00000
     10       1.9240      0.00000
     11       1.9255      0.00000
     12       1.9257      0.00000
     13       1.9351      0.00000
     14       1.9351      0.00000
     15       1.9495      0.00000
     16       2.0305      0.00000
     17       2.0308      0.00000
     18       2.0313      0.00000
     19       2.0318      0.00000
     20       2.0318      0.00000
     21       2.0323      0.00000
     22       2.0344      0.00000
     23       2.0352      0.00000
     24       2.0353      0.00000
     25       2.0619      0.00000
     26       2.0619      0.00000
     27       2.1482      0.00000
     28       2.3531      0.00000
     29       2.3538      0.00000
     30       2.3541      0.00000
     31       2.3546      0.00000
     32       2.3564      0.00000
     33       2.3564      0.00000
     34       2.3570      0.00000
     35       2.3573      0.00000
     36       2.3659      0.00000
     37       2.3845      0.00000
     38       2.3845      0.00000
     39       2.5214      0.00000
     40       2.7063      0.00000
     41       2.7201      0.00000
     42       2.8909      0.00000
     43       2.8915      0.00000
     44       2.8920      0.00000
     45       2.8923      0.00000
     46       2.8935      0.00000
     47       2.8939      0.00000
     48       2.8964      0.00000

 k-point   2 :       0.3333    0.0000    0.0000
  band No.  band energies     occupation 
      1       0.2327      0.00000
      2       0.3288      0.00000
      3       0.3607      0.00000
      4       0.6538      0.00000
      5       0.6801      0.00000
      6       0.8719      0.00000
      7       0.9674      0.00000
      8       0.9990      0.00000
      9       1.1944      0.00000
     10       1.2114      0.00000
     11       1.2925      0.00000
     12       1.3213      0.00000
     13       1.5052      0.00000
     14       1.5165      0.00000
     15       1.6056      0.00000
     16       1.6064      0.00000
     17       1.6228      0.00000
     18       1.6594      0.00000
     19       1.8326      0.00000
     20       1.8496      0.00000
     21       1.9294      0.00000
     22       1.9307      0.00000
     23       1.9400      0.00000
     24       1.9443      0.00000
     25       1.9522      0.00000
     26       2.0363      0.00000
     27       2.4685      0.00000
     28       2.4744      0.00000
     29       2.4792      0.00000
     30       2.5050      0.00000
     31       2.5891      0.00000
     32       2.6182      0.00000
     33       2.7826      0.00000
     34       2.7929      0.00000
     35       2.8829      0.00000
     36       2.8834      0.00000
     37       2.9004      0.00000
     38       2.9039      0.00000
     39       2.9202      0.00000
     40       2.9687      0.00000
     41       3.2065      0.00000
     42       3.2079      0.00000
     43       3.2139      0.00000
     44       3.2206      0.00000
     45       3.2221      0.00000
     46       3.2346      0.00000
     47       3.2392      0.00000
     48       3.3063      0.00000

 k-point   3 :       0.3333    0.3333    0.0000
  band No.  band energies     occupation 
      1       0.6498      0.00000
      2       0.6499      0.00000
      3       0.6674      0.00000
      4       0.7537      0.00000
      5       0.7539      0.00000
      6       0.7561      0.00000
      7       0.7615      0.00000
      8       0.7616      0.00000
      9       0.8347      0.00000
     10       1.0768      0.00000
     11       1.0770      0.00000
     12       1.0833      0.00000
     13       1.0834      0.00000
     14       1.0847      0.00000
     15       1.1772      0.00000
     16       1.6152      0.00000
     17       1.6153      0.00000
     18       1.6195      0.00000
     19       1.6196      0.00000
     20       1.6304      0.00000
     21       1.7065      0.00000
     22       2.3680      0.00000
     23       2.3682      0.00000
     24       2.3708      0.00000
     25       2.3709      0.00000
     26       2.3910      0.00000
     27       2.4221      0.00000
     28       2.5708      0.00000
     29       2.5708      0.00000
     30       2.5860      0.00000
     31       2.6700      0.00000
     32       2.6700      0.00000
     33       2.6713      0.00000
     34       2.6906      0.00000
     35       2.6907      0.00000
     36       2.7541      0.00000
     37       2.9939      0.00000
     38       2.9940      0.00000
     39       2.9979      0.00000
     40       3.0121      0.00000
     41       3.0121      0.00000
     42       3.0721      0.00000
     43       3.3355      0.00000
     44       3.3356      0.00000
     45       3.3380      0.00000
     46       3.3381      0.00000
     47       3.3656      0.00000
     48       3.3981      0.00000


--------------------------------------------------------------------------------------------------------


 soft charge-density along one line, spin component           1
         0         1         2         3         4         5         6         7         8         9
 total charge-density along one line
 
 soft charge-density along one line, spin component           2
         0         1         2         3         4         5         6         7         8         9
 total charge-density along one line
 
 pseudopotential strength for first ion, spin component:           1
 -2.402  -4.148   0.000   0.000   0.000
 -4.148  -7.077   0.000   0.000   0.000
  0.000   0.000  -0.339   0.000   0.000
  0.000   0.000   0.000  -0.339   0.000
  0.000   0.000   0.000   0.000  -0.339
 pseudopotential strength for first ion, spin component:           2
 -0.602  -0.828   0.000   0.000   0.000
 -0.828  -0.973   0.000   0.000   0.000
  0.000   0.000  -0.425   0.000   0.000
  0.000   0.000   0.000  -0.425   0.000
  0.000   0.000   0.000   0.000  -0.425
 total augmentation occupancy for first ion, spin component:           1
  0.932   0.047   0.000   0.000   0.000
  0.047   0.002   0.000   0.000   0.000
  0.000   0.000   0.000   0.000   0.000
  0.000   0.000   0.000   0.000   0.000
  0.000   0.000   0.000   0.000   0.000
 total augmentation occupancy for first ion, spin component:           2
  0.932   0.047   0.000   0.000   0.000
  0.047   0.002   0.000   0.000   0.000
  0.000   0.000   0.000   0.000   0.000
  0.000   0.000   0.000   0.000   0.000
  0.000   0.000   0.000   0.000   0.000


------------------------ aborting loop because EDIFF is reached ----------------------------------------


    CHARGE:  cpu time    1.70: real time    1.70
    FORLOC:  cpu time    0.03: real time    0.03
    FORNL :  cpu time    4.98: real time    4.98
    STRESS:  cpu time   15.40: real time   15.45
    FORHAR:  cpu time    0.13: real time    0.19
    MIXING:  cpu time    0.02: real time    0.02

  FORCE on cell =-STRESS in cart. coord.  units (eV):
  Direction    XX          YY          ZZ          XY          YZ          ZX
  --------------------------------------------------------------------------------------
  Alpha Z     0.00072     0.00072     0.00072
  Ewald       1.62890     1.62890    -3.11141     0.00000     0.00000     0.00000
  Hartree     4.39289     4.39289    -0.29626     0.00000     0.00000     0.00000
  E(xc)      -2.73244    -2.73244    -2.73244     0.00000     0.00000     0.00000
  Local      -9.74187    -9.74187    -0.31239     0.00000     0.00000     0.00000
  n-local    -1.83762    -1.83765    -1.83756     0.00003     0.00000     0.00000
  augment     0.10546     0.10546     0.10546     0.00000     0.00000     0.00000
  Kinetic     8.17425     8.17416     8.17421     0.00008     0.00000     0.00000
  Fock        0.00000     0.00000     0.00000     0.00000     0.00000     0.00000
  -------------------------------------------------------------------------------------
  Total      -0.00976    -0.00976    -0.00968     0.00000     0.00000     0.00000
  in kB      -0.00461    -0.00461    -0.00457     0.00000     0.00000     0.00000
  external pressure =        0.00 kB  Pullay stress =        0.00 kB


 VOLUME and BASIS-vectors are now :
 -----------------------------------------------------------------------------
  energy-cutoff  :      520.00
  volume of cell :     3391.56
      direct lattice vectors                 reciprocal lattice vectors
    10.231375098  0.000000000  0.000000000     0.097738573  0.056429391  0.000000000
    -5.115687549  8.860630751  0.000000000     0.000000000  0.112858783  0.000000000
     0.000000000  0.000000000 37.411182405     0.000000000  0.000000000  0.026729976

  length of vectors
    10.231375098 10.231375098 37.411182405     0.112858783  0.112858783  0.026729976


 FORCES acting on ions
    electron-ion (+dipol)            ewald-force                    non-local-force                 convergence-correction
 -----------------------------------------------------------------------------------------------
   -.776E-17 -.123E-16 0.124E-16   -.677E-18 0.345E-17 0.000E+00   0.000E+00 0.000E+00 0.000E+00   -.380E-14 -.735E-14 0.247E-14
 -----------------------------------------------------------------------------------------------
   -.776E-17 -.123E-16 0.124E-16   -.677E-18 0.345E-17 0.000E+00   0.000E+00 0.000E+00 0.000E+00   -.380E-14 -.735E-14 0.247E-14
 
 
 POSITION                                       TOTAL-FORCE (eV/Angst)
 -----------------------------------------------------------------------------------
      0.00000      0.00000      0.00000         0.000000      0.000000      0.000000
 -----------------------------------------------------------------------------------
    total drift:                                0.000000      0.000000      0.000000


--------------------------------------------------------------------------------------------------------



  FREE ENERGIE OF THE ION-ELECTRON SYSTEM (eV)
  ---------------------------------------------------
  free  energy   TOTEN  =        -1.11720585 eV

  energy  without entropy=       -1.11720585  energy(sigma->0) =       -1.11720585
 


--------------------------------------------------------------------------------------------------------


    POTLOK:  cpu time    2.29: real time    2.29


--------------------------------------------------------------------------------------------------------


    WAVPRE:  cpu time    0.00: real time    0.00
 FEWALD executed in parallel
    FEWALD:  cpu time    0.00: real time    0.00
    ORTHCH:  cpu time    0.64: real time    0.64
     LOOP+:  cpu time   67.93: real time   68.41


----------------------------------------- Iteration    2(   1)  ---------------------------------------


    POTLOK:  cpu time    1.40: real time    1.40
    SETDIJ:  cpu time    0.88: real time    0.88
     EDDAV:  cpu time    4.51: real time    4.52
       DOS:  cpu time    0.00: real time    0.00
    CHARGE:  cpu time    1.70: real time    1.70
    MIXING:  cpu time    0.05: real time    0.05
    --------------------------------------------
      LOOP:  cpu time    8.54: real time    8.56

 eigenvalue-minimisations  :   432
 total energy-change (2. order) :-0.2856798E-05  ( 0.2237856E-09)
 number of electron       1.0000000 magnetization       1.0000000
 augmentation part        0.0152414 magnetization       0.0152414

 Broyden mixing:
  rms(total) = 0.92013E-07    rms(broyden)= 0.55227E-07
  rms(prec ) = 0.55890E-07
  weight for this iteration     100.00
  WARNING: grid for Broyden might be to small

 Free energy of the ion-electron system (eV)
  ---------------------------------------------------
  alpha Z        PSCENC =         0.00071830
  Ewald energy   TEWEN  =         0.14639535
  -1/2 Hartree   DENC   =        -8.48952762
  -exchange  EXHF       =         0.00000000
  -V(xc)+E(xc)   XCENC  =         2.33497205
  PAW double counting   =         2.13444466       -2.14459178
  entropy T*S    EENTRO =         0.00000000
  eigenvalues    EBANDS =        -7.58658738
  atomic energy  EATOM  =        12.48697088
  ---------------------------------------------------
  free energy    TOTEN  =        -1.11720555 eV

  energy without entropy =       -1.11720555  energy(sigma->0) =       -1.11720555


--------------------------------------------------------------------------------------------------------




----------------------------------------- Iteration    2(   2)  ---------------------------------------


    POTLOK:  cpu time    1.40: real time    1.40
    SETDIJ:  cpu time    0.87: real time    0.87
    EDDIAG:  cpu time    1.29: real time    1.29
  RMM-DIIS:  cpu time    2.01: real time    2.01
    ORTHCH:  cpu time    0.12: real time    0.12
       DOS:  cpu time    0.00: real time    0.00
    CHARGE:  cpu time    1.71: real time    1.71
    MIXING:  cpu time    0.06: real time    0.06
    --------------------------------------------
      LOOP:  cpu time    7.46: real time    7.47

 eigenvalue-minimisations  :    62
 total energy-change (2. order) : 0.7732646E-06  ( 0.0000000E+00)
 number of electron       1.0000000 magnetization       1.0000000
 augmentation part        0.0152414 magnetization       0.0152414

 Broyden mixing:
  rms(total) = 0.85636E-07    rms(broyden)= 0.43796E-07
  rms(prec ) = 0.44347E-07
  weight for this iteration     100.00
  WARNING: grid for Broyden might be to small

 eigenvalues of (default mixing * dielectric matrix)
  average eigenvalue GAMMA=  20.6249
 98.5641  0.8020  1.2593  1.2495  1.2495

 Free energy of the ion-electron system (eV)
  ---------------------------------------------------
  alpha Z        PSCENC =         0.00071830
  Ewald energy   TEWEN  =         0.14639535
  -1/2 Hartree   DENC   =        -8.48952734
  -exchange  EXHF       =         0.00000000
  -V(xc)+E(xc)   XCENC  =         2.33497181
  PAW double counting   =         2.13444565       -2.14459275
  entropy T*S    EENTRO =         0.00000000
  eigenvalues    EBANDS =        -7.58658667
  atomic energy  EATOM  =        12.48697088
  ---------------------------------------------------
  free energy    TOTEN  =        -1.11720478 eV

  energy without entropy =       -1.11720478  energy(sigma->0) =       -1.11720478


--------------------------------------------------------------------------------------------------------




----------------------------------------- Iteration    2(   3)  ---------------------------------------


    POTLOK:  cpu time    1.40: real time    1.40
    SETDIJ:  cpu time    0.87: real time    0.87
    EDDIAG:  cpu time    1.30: real time    1.30
  RMM-DIIS:  cpu time    1.66: real time    1.66
    ORTHCH:  cpu time    0.12: real time    0.12
       DOS:  cpu time    0.00: real time    0.00
    CHARGE:  cpu time    1.69: real time    1.69
    MIXING:  cpu time    0.04: real time    0.04
    --------------------------------------------
      LOOP:  cpu time    7.09: real time    8.79

 eigenvalue-minimisations  :    49
 total energy-change (2. order) : 0.9670287E-07  ( 0.0000000E+00)
 number of electron       1.0000000 magnetization       1.0000000
 augmentation part        0.0152414 magnetization       0.0152414

 Broyden mixing:
  rms(total) = 0.81316E-07    rms(broyden)= 0.34595E-07
  rms(prec ) = 0.34887E-07
  weight for this iteration     100.00
  WARNING: grid for Broyden might be to small

 eigenvalues of (default mixing * dielectric matrix)
  average eigenvalue GAMMA=  30.9705
 98.4835 82.8496  0.7312  1.2542  1.2542  1.2500

 Free energy of the ion-electron system (eV)
  ---------------------------------------------------
  alpha Z        PSCENC =         0.00071830
  Ewald energy   TEWEN  =         0.14639535
  -1/2 Hartree   DENC   =        -8.48952714
  -exchange  EXHF       =         0.00000000
  -V(xc)+E(xc)   XCENC  =         2.33497178
  PAW double counting   =         2.13444548       -2.14459258
  entropy T*S    EENTRO =         0.00000000
  eigenvalues    EBANDS =        -7.58658675
  atomic energy  EATOM  =        12.48697088
  ---------------------------------------------------
  free energy    TOTEN  =        -1.11720468 eV

  energy without entropy =       -1.11720468  energy(sigma->0) =       -1.11720468


--------------------------------------------------------------------------------------------------------




----------------------------------------- Iteration    2(   4)  ---------------------------------------


    POTLOK:  cpu time    1.40: real time    1.41
    SETDIJ:  cpu time    0.86: real time    0.87
    EDDIAG:  cpu time    1.28: real time    1.28
  RMM-DIIS:  cpu time    1.47: real time    1.47
    ORTHCH:  cpu time    0.12: real time    0.12
       DOS:  cpu time    0.00: real time    0.00
    CHARGE:  cpu time    1.69: real time    1.69
    MIXING:  cpu time    0.04: real time    0.04
    --------------------------------------------
      LOOP:  cpu time    6.88: real time    6.90

 eigenvalue-minimisations  :    11
 total energy-change (2. order) :-0.6452756E-06  ( 0.0000000E+00)
 number of electron       1.0000000 magnetization       1.0000000
 augmentation part        0.0152414 magnetization       0.0152414

 Broyden mixing:
  rms(total) = 0.89611E-07    rms(broyden)= 0.51134E-07
  rms(prec ) = 0.52056E-07
  weight for this iteration     100.00
  WARNING: grid for Broyden might be to small

 eigenvalues of (default mixing * dielectric matrix)
  average eigenvalue GAMMA=  29.3756
 99.6339100.1314  0.7281  1.3769  1.2543  1.2543  1.2500

 Free energy of the ion-electron system (eV)
  ---------------------------------------------------
  alpha Z        PSCENC =         0.00071830
  Ewald energy   TEWEN  =         0.14639535
  -1/2 Hartree   DENC   =        -8.48952764
  -exchange  EXHF       =         0.00000000
  -V(xc)+E(xc)   XCENC  =         2.33497185
  PAW double counting   =         2.13444489       -2.14459200
  entropy T*S    EENTRO =         0.00000000
  eigenvalues    EBANDS =        -7.58658696
  atomic energy  EATOM  =        12.48697088
  ---------------------------------------------------
  free energy    TOTEN  =        -1.11720533 eV

  energy without entropy =       -1.11720533  energy(sigma->0) =       -1.11720533


--------------------------------------------------------------------------------------------------------




----------------------------------------- Iteration    2(   5)  ---------------------------------------


    POTLOK:  cpu time    1.40: real time    1.40
    SETDIJ:  cpu time    0.87: real time    0.87
    EDDIAG:  cpu time    1.30: real time    1.30
  RMM-DIIS:  cpu time    1.54: real time    1.54
    ORTHCH:  cpu time    0.12: real time    0.12
       DOS:  cpu time    0.00: real time    0.00
    --------------------------------------------
      LOOP:  cpu time    5.23: real time    5.25

 eigenvalue-minimisations  :    27
 total energy-change (2. order) :-0.7906284E-06  ( 0.0000000E+00)
 number of electron       1.0000000 magnetization       1.0000000
 augmentation part        0.0152414 magnetization       0.0152414

 Free energy of the ion-electron system (eV)
  ---------------------------------------------------
  alpha Z        PSCENC =         0.00071830
  Ewald energy   TEWEN  =         0.14639535
  -1/2 Hartree   DENC   =        -8.48952729
  -exchange  EXHF       =         0.00000000
  -V(xc)+E(xc)   XCENC  =         2.33497190
  PAW double counting   =         2.13444381       -2.14459094
  entropy T*S    EENTRO =         0.00000000
  eigenvalues    EBANDS =        -7.58658813
  atomic energy  EATOM  =        12.48697088
  ---------------------------------------------------
  free energy    TOTEN  =        -1.11720612 eV

  energy without entropy =       -1.11720612  energy(sigma->0) =       -1.11720612


--------------------------------------------------------------------------------------------------------




 average (electrostatic) potential at core
  the test charge radii are     0.5201
  (the norm of the test charge is              1.0000)
       1 -14.6516
 
 
 
 E-fermi :  -8.6082     XC(G=0):  -0.0430     alpha+bet : -0.0081


 spin component 1

 k-point   1 :       0.0000    0.0000    0.0000
  band No.  band energies     occupation 
      1      -7.5866      1.00000
      2      -0.1929      0.00000
      3       0.0432      0.00000
      4       0.0547      0.00000
      5       0.2961      0.00000
      6       0.3714      0.00000
      7       0.7763      0.00000
      8       0.8934      0.00000
      9       0.8934      0.00000
     10       0.9109      0.00000
     11       1.4163      0.00000
     12       1.6309      0.00000
     13       1.7169      0.00000
     14       1.7170      0.00000
     15       1.8034      0.00000
     16       1.8552      0.00000
     17       1.8772      0.00000
     18       1.9549      0.00000
     19       1.9557      0.00000
     20       1.9608      0.00000
     21       1.9616      0.00000
     22       1.9683      0.00000
     23       1.9690      0.00000
     24       1.9805      0.00000
     25       1.9855      0.00000
     26       2.0113      0.00000
     27       2.0125      0.00000
     28       2.0216      0.00000
     29       2.1175      0.00000
     30       2.2120      0.00000
     31       2.2128      0.00000
     32       2.2242      0.00000
     33       2.2249      0.00000
     34       2.2776      0.00000
     35       2.2786      0.00000
     36       2.3084      0.00000
     37       2.3089      0.00000
     38       2.3115      0.00000
     39       2.3281      0.00000
     40       2.3304      0.00000
     41       2.4762      0.00000
     42       2.6228      0.00000
     43       2.7098      0.00000
     44       2.7104      0.00000
     45       2.7218      0.00000
     46       2.7320      0.00000
     47       2.7329      0.00000
     48       2.8161      0.00000

 k-point   2 :       0.3333    0.0000    0.0000
  band No.  band energies     occupation 
      1      -7.5866      1.00000
      2      -0.0222      0.00000
      3       0.2442      0.00000
      4       0.2642      0.00000
      5       0.4677      0.00000
      6       0.4875      0.00000
      7       0.5862      0.00000
      8       0.7524      0.00000
      9       0.8613      0.00000
     10       0.8977      0.00000
     11       0.9974      0.00000
     12       1.1111      0.00000
     13       1.1889      0.00000
     14       1.1979      0.00000
     15       1.3307      0.00000
     16       1.4916      0.00000
     17       1.5308      0.00000
     18       1.5459      0.00000
     19       1.5644      0.00000
     20       1.6345      0.00000
     21       1.6851      0.00000
     22       1.7902      0.00000
     23       1.7950      0.00000
     24       1.8378      0.00000
     25       1.8532      0.00000
     26       1.8747      0.00000
     27       1.8829      0.00000
     28       2.1619      0.00000
     29       2.2091      0.00000
     30       2.2480      0.00000
     31       2.3456      0.00000
     32       2.4252      0.00000
     33       2.4274      0.00000
     34       2.4739      0.00000
     35       2.5798      0.00000
     36       2.6787      0.00000
     37       2.7864      0.00000
     38       2.8110      0.00000
     39       2.8122      0.00000
     40       2.8434      0.00000
     41       2.8525      0.00000
     42       2.9767      0.00000
     43       3.0268      0.00000
     44       3.0320      0.00000
     45       3.0598      0.00000
     46       3.1238      0.00000
     47       3.1267      0.00000
     48       3.1458      0.00000

 k-point   3 :       0.3333    0.3333    0.0000
  band No.  band energies     occupation 
      1      -7.5866      1.00000
      2       0.2873      0.00000
      3       0.2874      0.00000
      4       0.3666      0.00000
      5       0.4986      0.00000
      6       0.6850      0.00000
      7       0.6855      0.00000
      8       0.6906      0.00000
      9       0.7318      0.00000
     10       0.7325      0.00000
     11       0.8489      0.00000
     12       0.9727      0.00000
     13       0.9733      0.00000
     14       1.0059      0.00000
     15       1.0240      0.00000
     16       1.0243      0.00000
     17       1.3305      0.00000
     18       1.4771      0.00000
     19       1.4775      0.00000
     20       1.5414      0.00000
     21       1.5418      0.00000
     22       1.5423      0.00000
     23       1.8892      0.00000
     24       1.8893      0.00000
     25       2.0249      0.00000
     26       2.2323      0.00000
     27       2.2807      0.00000
     28       2.2813      0.00000
     29       2.3064      0.00000
     30       2.3067      0.00000
     31       2.4823      0.00000
     32       2.5963      0.00000
     33       2.5968      0.00000
     34       2.6208      0.00000
     35       2.6217      0.00000
     36       2.6291      0.00000
     37       2.6297      0.00000
     38       2.8256      0.00000
     39       2.8567      0.00000
     40       2.8573      0.00000
     41       2.8983      0.00000
     42       2.8987      0.00000
     43       2.9499      0.00000
     44       3.0354      0.00000
     45       3.1877      0.00000
     46       3.1881      0.00000
     47       3.2110      0.00000
     48       3.2399      0.00000

 spin component 2

 k-point   1 :       0.0000    0.0000    0.0000
  band No.  band energies     occupation 
      1       0.0202      0.00000
      2       0.1160      0.00000
      3       0.1498      0.00000
      4       0.4409      0.00000
      5       0.4717      0.00000
      6       0.9817      0.00000
      7       1.0027      0.00000
      8       1.7369      0.00000
      9       1.7426      0.00000
     10       1.9240      0.00000
     11       1.9255      0.00000
     12       1.9257      0.00000
     13       1.9351      0.00000
     14       1.9351      0.00000
     15       1.9495      0.00000
     16       2.0305      0.00000
     17       2.0308      0.00000
     18       2.0313      0.00000
     19       2.0318      0.00000
     20       2.0318      0.00000
     21       2.0323      0.00000
     22       2.0344      0.00000
     23       2.0352      0.00000
     24       2.0353      0.00000
     25       2.0619      0.00000
     26       2.0619      0.00000
     27       2.1482      0.00000
     28       2.3531      0.00000
     29       2.3538      0.00000
     30       2.3541      0.00000
     31       2.3546      0.00000
     32       2.3564      0.00000
     33       2.3564      0.00000
     34       2.3570      0.00000
     35       2.3573      0.00000
     36       2.3659      0.00000
     37       2.3845      0.00000
     38       2.3845      0.00000
     39       2.5214      0.00000
     40       2.7063      0.00000
     41       2.7201      0.00000
     42       2.8909      0.00000
     43       2.8915      0.00000
     44       2.8920      0.00000
     45       2.8923      0.00000
     46       2.8935      0.00000
     47       2.8939      0.00000
     48       2.8964      0.00000

 k-point   2 :       0.3333    0.0000    0.0000
  band No.  band energies     occupation 
      1       0.2327      0.00000
      2       0.3288      0.00000
      3       0.3607      0.00000
      4       0.6538      0.00000
      5       0.6801      0.00000
      6       0.8719      0.00000
      7       0.9674      0.00000
      8       0.9990      0.00000
      9       1.1944      0.00000
     10       1.2114      0.00000
     11       1.2925      0.00000
     12       1.3213      0.00000
     13       1.5052      0.00000
     14       1.5165      0.00000
     15       1.6056      0.00000
     16       1.6064      0.00000
     17       1.6228      0.00000
     18       1.6594      0.00000
     19       1.8326      0.00000
     20       1.8496      0.00000
     21       1.9294      0.00000
     22       1.9307      0.00000
     23       1.9400      0.00000
     24       1.9443      0.00000
     25       1.9522      0.00000
     26       2.0363      0.00000
     27       2.4685      0.00000
     28       2.4744      0.00000
     29       2.4793      0.00000
     30       2.5050      0.00000
     31       2.5891      0.00000
     32       2.6182      0.00000
     33       2.7826      0.00000
     34       2.7929      0.00000
     35       2.8829      0.00000
     36       2.8834      0.00000
     37       2.9004      0.00000
     38       2.9039      0.00000
     39       2.9203      0.00000
     40       2.9687      0.00000
     41       3.2065      0.00000
     42       3.2079      0.00000
     43       3.2139      0.00000
     44       3.2206      0.00000
     45       3.2221      0.00000
     46       3.2346      0.00000
     47       3.2392      0.00000
     48       3.3063      0.00000

 k-point   3 :       0.3333    0.3333    0.0000
  band No.  band energies     occupation 
      1       0.6498      0.00000
      2       0.6500      0.00000
      3       0.6674      0.00000
      4       0.7537      0.00000
      5       0.7539      0.00000
      6       0.7561      0.00000
      7       0.7615      0.00000
      8       0.7616      0.00000
      9       0.8347      0.00000
     10       1.0768      0.00000
     11       1.0770      0.00000
     12       1.0833      0.00000
     13       1.0834      0.00000
     14       1.0847      0.00000
     15       1.1772      0.00000
     16       1.6152      0.00000
     17       1.6153      0.00000
     18       1.6195      0.00000
     19       1.6196      0.00000
     20       1.6304      0.00000
     21       1.7066      0.00000
     22       2.3680      0.00000
     23       2.3682      0.00000
     24       2.3708      0.00000
     25       2.3709      0.00000
     26       2.3910      0.00000
     27       2.4221      0.00000
     28       2.5708      0.00000
     29       2.5708      0.00000
     30       2.5860      0.00000
     31       2.6700      0.00000
     32       2.6700      0.00000
     33       2.6713      0.00000
     34       2.6907      0.00000
     35       2.6907      0.00000
     36       2.7541      0.00000
     37       2.9939      0.00000
     38       2.9940      0.00000
     39       2.9979      0.00000
     40       3.0121      0.00000
     41       3.0121      0.00000
     42       3.0721      0.00000
     43       3.3355      0.00000
     44       3.3356      0.00000
     45       3.3380      0.00000
     46       3.3381      0.00000
     47       3.3656      0.00000
     48       3.3981      0.00000


--------------------------------------------------------------------------------------------------------


 soft charge-density along one line, spin component           1
         0         1         2         3         4         5         6         7         8         9
 total charge-density along one line
 
 soft charge-density along one line, spin component           2
         0         1         2         3         4         5         6         7         8         9
 total charge-density along one line
 
 pseudopotential strength for first ion, spin component:           1
 -2.402  -4.148   0.000   0.000   0.000
 -4.148  -7.077   0.000   0.000   0.000
  0.000   0.000  -0.339   0.000   0.000
  0.000   0.000   0.000  -0.339   0.000
  0.000   0.000   0.000   0.000  -0.339
 pseudopotential strength for first ion, spin component:           2
 -0.602  -0.828   0.000   0.000   0.000
 -0.828  -0.973   0.000   0.000   0.000
  0.000   0.000  -0.425   0.000   0.000
  0.000   0.000   0.000  -0.425   0.000
  0.000   0.000   0.000   0.000  -0.425
 total augmentation occupancy for first ion, spin component:           1
  0.932   0.047   0.000   0.000   0.000
  0.047   0.002   0.000   0.000   0.000
  0.000   0.000   0.000   0.000   0.000
  0.000   0.000   0.000   0.000   0.000
  0.000   0.000   0.000   0.000   0.000
 total augmentation occupancy for first ion, spin component:           2
  0.932   0.047   0.000   0.000   0.000
  0.047   0.002   0.000   0.000   0.000
  0.000   0.000   0.000   0.000   0.000
  0.000   0.000   0.000   0.000   0.000
  0.000   0.000   0.000   0.000   0.000


------------------------ aborting loop because EDIFF is reached ----------------------------------------


    CHARGE:  cpu time    1.70: real time    1.70
    FORLOC:  cpu time    0.03: real time    0.03
    FORNL :  cpu time    4.89: real time    4.90
    STRESS:  cpu time   15.17: real time   15.19
    FORHAR:  cpu time    0.14: real time    0.14
    MIXING:  cpu time    0.02: real time    0.02

  FORCE on cell =-STRESS in cart. coord.  units (eV):
  Direction    XX          YY          ZZ          XY          YZ          ZX
  --------------------------------------------------------------------------------------
  Alpha Z     0.00072     0.00072     0.00072
  Ewald       1.62890     1.62890    -3.11141     0.00000     0.00000     0.00000
  Hartree     4.39289     4.39289    -0.29626     0.00000     0.00000     0.00000
  E(xc)      -2.73244    -2.73244    -2.73244     0.00000     0.00000     0.00000
  Local      -9.74187    -9.74187    -0.31239     0.00000     0.00000     0.00000
  n-local    -1.83762    -1.83765    -1.83756     0.00003     0.00000     0.00000
  augment     0.10546     0.10546     0.10546     0.00000     0.00000     0.00000
  Kinetic     8.17425     8.17416     8.17421     0.00008     0.00000     0.00000
  Fock        0.00000     0.00000     0.00000     0.00000     0.00000     0.00000
  -------------------------------------------------------------------------------------
  Total      -0.00976    -0.00976    -0.00968     0.00000     0.00000     0.00000
  in kB      -0.00461    -0.00461    -0.00457     0.00000     0.00000     0.00000
  external pressure =        0.00 kB  Pullay stress =        0.00 kB


 VOLUME and BASIS-vectors are now :
 -----------------------------------------------------------------------------
  energy-cutoff  :      520.00
  volume of cell :     3391.56
      direct lattice vectors                 reciprocal lattice vectors
    10.231375098  0.000000000  0.000000000     0.097738573  0.056429391  0.000000000
    -5.115687549  8.860630751  0.000000000     0.000000000  0.112858783  0.000000000
     0.000000000  0.000000000 37.411182405     0.000000000  0.000000000  0.026729976

  length of vectors
    10.231375098 10.231375098 37.411182405     0.112858783  0.112858783  0.026729976


 FORCES acting on ions
    electron-ion (+dipol)            ewald-force                    non-local-force                 convergence-correction
 -----------------------------------------------------------------------------------------------
   -.688E-17 -.125E-16 0.133E-16   -.677E-18 0.345E-17 0.000E+00   -.808E-27 0.000E+00 0.000E+00   -.363E-14 -.747E-14 0.165E-14
[...]
 34.4621 12.0158 10.9007  7.6162  5.3700  3.6608  2.9663  2.6817  2.4365  2.3792
  1.9957  1.6414  0.7401  1.5296  1.4593  1.4009  1.1910  1.1910  1.3076  1.2703
  1.1364  1.1364  1.1562  0.9841  1.0514  1.0514  1.0767  1.0767  1.0282

 Free energy of the ion-electron system (eV)
  ---------------------------------------------------
  alpha Z        PSCENC =         0.00071830
  Ewald energy   TEWEN  =         0.14639535
  -1/2 Hartree   DENC   =        -8.48952738
  -exchange  EXHF       =         0.00000000
  -V(xc)+E(xc)   XCENC  =         2.33497193
  PAW double counting   =         2.13444365       -2.14459078
  entropy T*S    EENTRO =         0.00000000
  eigenvalues    EBANDS =        -7.58658806
  atomic energy  EATOM  =        12.48697088
  ---------------------------------------------------
  free energy    TOTEN  =        -1.11720612 eV

  energy without entropy =       -1.11720612  energy(sigma->0) =       -1.11720612


--------------------------------------------------------------------------------------------------------




----------------------------------------- Iteration   50(   5)  ---------------------------------------


    POTLOK:  cpu time    1.41: real time    1.41
    SETDIJ:  cpu time    0.88: real time    0.88
    EDDIAG:  cpu time    1.30: real time    1.30
  RMM-DIIS:  cpu time    1.28: real time    1.29
    ORTHCH:  cpu time    0.12: real time    0.12
       DOS:  cpu time    0.00: real time    0.00
    --------------------------------------------
      LOOP:  cpu time    5.00: real time    5.01

 eigenvalue-minimisations  :     0
 total energy-change (2. order) :-0.8881784E-13  ( 0.0000000E+00)
 number of electron       1.0000000 magnetization       1.0000000
 augmentation part        0.0152414 magnetization       0.0152414

 Free energy of the ion-electron system (eV)
  ---------------------------------------------------
  alpha Z        PSCENC =         0.00071830
  Ewald energy   TEWEN  =         0.14639535
  -1/2 Hartree   DENC   =        -8.48952738
  -exchange  EXHF       =         0.00000000
  -V(xc)+E(xc)   XCENC  =         2.33497193
  PAW double counting   =         2.13444365       -2.14459078
  entropy T*S    EENTRO =         0.00000000
  eigenvalues    EBANDS =        -7.58658806
  atomic energy  EATOM  =        12.48697088
  ---------------------------------------------------
  free energy    TOTEN  =        -1.11720612 eV

  energy without entropy =       -1.11720612  energy(sigma->0) =       -1.11720612


--------------------------------------------------------------------------------------------------------




 average (electrostatic) potential at core
  the test charge radii are     0.5201
  (the norm of the test charge is              1.0000)
       1 -14.6516
 
 
 
 E-fermi :  -8.6082     XC(G=0):  -0.0430     alpha+bet : -0.0081


 spin component 1

 k-point   1 :       0.0000    0.0000    0.0000
  band No.  band energies     occupation 
      1      -7.5866      1.00000
      2      -0.1929      0.00000
      3       0.0432      0.00000
      4       0.0547      0.00000
      5       0.2961      0.00000
      6       0.3714      0.00000
      7       0.7763      0.00000
      8       0.8934      0.00000
      9       0.8934      0.00000
     10       0.9109      0.00000
     11       1.4163      0.00000
     12       1.6309      0.00000
     13       1.7169      0.00000
     14       1.7170      0.00000
     15       1.8034      0.00000
     16       1.8552      0.00000
     17       1.8772      0.00000
     18       1.9549      0.00000
     19       1.9557      0.00000
     20       1.9608      0.00000
     21       1.9616      0.00000
     22       1.9683      0.00000
     23       1.9690      0.00000
     24       1.9805      0.00000
     25       1.9855      0.00000
     26       2.0113      0.00000
     27       2.0125      0.00000
     28       2.0216      0.00000
     29       2.1175      0.00000
     30       2.2120      0.00000
     31       2.2128      0.00000
     32       2.2242      0.00000
     33       2.2249      0.00000
     34       2.2776      0.00000
     35       2.2786      0.00000
     36       2.3084      0.00000
     37       2.3089      0.00000
     38       2.3115      0.00000
     39       2.3281      0.00000
     40       2.3304      0.00000
     41       2.4762      0.00000
     42       2.6228      0.00000
     43       2.7098      0.00000
     44       2.7104      0.00000
     45       2.7218      0.00000
     46       2.7320      0.00000
     47       2.7329      0.00000
     48       2.8161      0.00000

 k-point   2 :       0.3333    0.0000    0.0000
  band No.  band energies     occupation 
      1      -7.5866      1.00000
      2      -0.0222      0.00000
      3       0.2442      0.00000
      4       0.2642      0.00000
      5       0.4677      0.00000
      6       0.4875      0.00000
      7       0.5862      0.00000
      8       0.7524      0.00000
      9       0.8613      0.00000
     10       0.8977      0.00000
     11       0.9974      0.00000
     12       1.1111      0.00000
     13       1.1889      0.00000
     14       1.1979      0.00000
     15       1.3307      0.00000
     16       1.4916      0.00000
     17       1.5308      0.00000
     18       1.5459      0.00000
     19       1.5644      0.00000
     20       1.6345      0.00000
     21       1.6851      0.00000
     22       1.7902      0.00000
     23       1.7950      0.00000
     24       1.8378      0.00000
     25       1.8532      0.00000
     26       1.8747      0.00000
     27       1.8829      0.00000
     28       2.1619      0.00000
     29       2.2091      0.00000
     30       2.2480      0.00000
     31       2.3456      0.00000
     32       2.4252      0.00000
     33       2.4274      0.00000
     34       2.4739      0.00000
     35       2.5798      0.00000
     36       2.6787      0.00000
     37       2.7864      0.00000
     38       2.8110      0.00000
     39       2.8122      0.00000
     40       2.8434      0.00000
     41       2.8525      0.00000
     42       2.9767      0.00000
     43       3.0268      0.00000
     44       3.0320      0.00000
     45       3.0598      0.00000
     46       3.1238      0.00000
     47       3.1267      0.00000
     48       3.1458      0.00000

 k-point   3 :       0.3333    0.3333    0.0000
  band No.  band energies     occupation 
      1      -7.5866      1.00000
      2       0.2873      0.00000
      3       0.2874      0.00000
      4       0.3666      0.00000
      5       0.4986      0.00000
      6       0.6850      0.00000
      7       0.6855      0.00000
      8       0.6906      0.00000
      9       0.7318      0.00000
     10       0.7325      0.00000
     11       0.8489      0.00000
     12       0.9727      0.00000
     13       0.9733      0.00000
     14       1.0059      0.00000
     15       1.0240      0.00000
     16       1.0243      0.00000
     17       1.3305      0.00000
     18       1.4771      0.00000
     19       1.4775      0.00000
     20       1.5414      0.00000
     21       1.5418      0.00000
     22       1.5423      0.00000
     23       1.8892      0.00000
     24       1.8893      0.00000
     25       2.0249      0.00000
     26       2.2323      0.00000
     27       2.2807      0.00000
     28       2.2813      0.00000
     29       2.3064      0.00000
     30       2.3067      0.00000
     31       2.4823      0.00000
     32       2.5963      0.00000
     33       2.5968      0.00000
     34       2.6208      0.00000
     35       2.6217      0.00000
     36       2.6291      0.00000
     37       2.6297      0.00000
     38       2.8256      0.00000
     39       2.8567      0.00000
     40       2.8573      0.00000
     41       2.8983      0.00000
     42       2.8987      0.00000
     43       2.9499      0.00000
     44       3.0354      0.00000
     45       3.1877      0.00000
     46       3.1881      0.00000
     47       3.2110      0.00000
     48       3.2399      0.00000

 spin component 2

 k-point   1 :       0.0000    0.0000    0.0000
  band No.  band energies     occupation 
      1       0.0202      0.00000
      2       0.1160      0.00000
      3       0.1498      0.00000
      4       0.4409      0.00000
      5       0.4717      0.00000
      6       0.9817      0.00000
      7       1.0027      0.00000
      8       1.7369      0.00000
      9       1.7426      0.00000
     10       1.9240      0.00000
     11       1.9255      0.00000
     12       1.9257      0.00000
     13       1.9351      0.00000
     14       1.9351      0.00000
     15       1.9495      0.00000
     16       2.0305      0.00000
     17       2.0308      0.00000
     18       2.0313      0.00000
     19       2.0318      0.00000
     20       2.0318      0.00000
     21       2.0323      0.00000
     22       2.0344      0.00000
     23       2.0352      0.00000
     24       2.0353      0.00000
     25       2.0619      0.00000
     26       2.0619      0.00000
     27       2.1482      0.00000
     28       2.3531      0.00000
     29       2.3538      0.00000
     30       2.3541      0.00000
     31       2.3546      0.00000
     32       2.3564      0.00000
     33       2.3564      0.00000
     34       2.3570      0.00000
     35       2.3573      0.00000
     36       2.3659      0.00000
     37       2.3845      0.00000
     38       2.3845      0.00000
     39       2.5214      0.00000
     40       2.7063      0.00000
     41       2.7201      0.00000
     42       2.8909      0.00000
     43       2.8915      0.00000
     44       2.8920      0.00000
     45       2.8923      0.00000
     46       2.8935      0.00000
     47       2.8939      0.00000
     48       2.8964      0.00000

 k-point   2 :       0.3333    0.0000    0.0000
  band No.  band energies     occupation 
      1       0.2327      0.00000
      2       0.3288      0.00000
      3       0.3607      0.00000
      4       0.6538      0.00000
      5       0.6801      0.00000
      6       0.8719      0.00000
      7       0.9674      0.00000
      8       0.9990      0.00000
      9       1.1944      0.00000
     10       1.2114      0.00000
     11       1.2925      0.00000
     12       1.3213      0.00000
     13       1.5052      0.00000
     14       1.5165      0.00000
     15       1.6056      0.00000
     16       1.6064      0.00000
     17       1.6228      0.00000
     18       1.6594      0.00000
     19       1.8326      0.00000
     20       1.8496      0.00000
     21       1.9294      0.00000
     22       1.9307      0.00000
     23       1.9400      0.00000
     24       1.9443      0.00000
     25       1.9522      0.00000
     26       2.0363      0.00000
     27       2.4685      0.00000
     28       2.4744      0.00000
     29       2.4793      0.00000
     30       2.5050      0.00000
     31       2.5891      0.00000
     32       2.6182      0.00000
     33       2.7826      0.00000
     34       2.7929      0.00000
     35       2.8829      0.00000
     36       2.8834      0.00000
     37       2.9004      0.00000
     38       2.9039      0.00000
     39       2.9203      0.00000
     40       2.9687      0.00000
     41       3.2065      0.00000
     42       3.2079      0.00000
     43       3.2139      0.00000
     44       3.2206      0.00000
     45       3.2221      0.00000
     46       3.2346      0.00000
     47       3.2392      0.00000
     48       3.3063      0.00000

 k-point   3 :       0.3333    0.3333    0.0000
  band No.  band energies     occupation 
      1       0.6498      0.00000
      2       0.6500      0.00000
      3       0.6674      0.00000
      4       0.7537      0.00000
      5       0.7539      0.00000
      6       0.7561      0.00000
      7       0.7615      0.00000
      8       0.7616      0.00000
      9       0.8347      0.00000
     10       1.0768      0.00000
     11       1.0770      0.00000
     12       1.0833      0.00000
     13       1.0834      0.00000
     14       1.0847      0.00000
     15       1.1772      0.00000
     16       1.6152      0.00000
     17       1.6153      0.00000
     18       1.6195      0.00000
     19       1.6196      0.00000
     20       1.6304      0.00000
     21       1.7066      0.00000
     22       2.3680      0.00000
     23       2.3682      0.00000
     24       2.3708      0.00000
     25       2.3709      0.00000
     26       2.3910      0.00000
     27       2.4221      0.00000
     28       2.5708      0.00000
     29       2.5708      0.00000
     30       2.5860      0.00000
     31       2.6700      0.00000
     32       2.6700      0.00000
     33       2.6713      0.00000
     34       2.6907      0.00000
     35       2.6907      0.00000
     36       2.7541      0.00000
     37       2.9939      0.00000
     38       2.9940      0.00000
     39       2.9979      0.00000
     40       3.0121      0.00000
     41       3.0121      0.00000
     42       3.0721      0.00000
     43       3.3355      0.00000
     44       3.3356      0.00000
     45       3.3380      0.00000
     46       3.3381      0.00000
     47       3.3656      0.00000
     48       3.3981      0.00000


--------------------------------------------------------------------------------------------------------


 soft charge-density along one line, spin component           1
         0         1         2         3         4         5         6         7         8         9
 total charge-density along one line
 
 soft charge-density along one line, spin component           2
         0         1         2         3         4         5         6         7         8         9
 total charge-density along one line
 
 pseudopotential strength for first ion, spin component:           1
 -2.402  -4.148   0.000   0.000   0.000
 -4.148  -7.077   0.000   0.000   0.000
  0.000   0.000  -0.339   0.000   0.000
  0.000   0.000   0.000  -0.339   0.000
  0.000   0.000   0.000   0.000  -0.339
 pseudopotential strength for first ion, spin component:           2
 -0.602  -0.828   0.000   0.000   0.000
 -0.828  -0.973   0.000   0.000   0.000
  0.000   0.000  -0.425   0.000   0.000
  0.000   0.000   0.000  -0.425   0.000
  0.000   0.000   0.000   0.000  -0.425
 total augmentation occupancy for first ion, spin component:           1
  0.932   0.047   0.000   0.000   0.000
  0.047   0.002   0.000   0.000   0.000
  0.000   0.000   0.000   0.000   0.000
  0.000   0.000   0.000   0.000   0.000
  0.000   0.000   0.000   0.000   0.000
 total augmentation occupancy for first ion, spin component:           2
  0.932   0.047   0.000   0.000   0.000
  0.047   0.002   0.000   0.000   0.000
  0.000   0.000   0.000   0.000   0.000
  0.000   0.000   0.000   0.000   0.000
  0.000   0.000   0.000   0.000   0.000


------------------------ aborting loop because EDIFF is reached ----------------------------------------


    CHARGE:  cpu time    1.70: real time    1.70
    FORLOC:  cpu time    0.03: real time    0.02
    FORNL :  cpu time    4.98: real time    4.98
    STRESS:  cpu time   15.33: real time   15.39
    FORHAR:  cpu time    0.14: real time    0.14
    MIXING:  cpu time    0.06: real time    0.06

  FORCE on cell =-STRESS in cart. coord.  units (eV):
  Direction    XX          YY          ZZ          XY          YZ          ZX
  --------------------------------------------------------------------------------------
  Alpha Z     0.00072     0.00072     0.00072
  Ewald       1.62890     1.62890    -3.11141     0.00000     0.00000     0.00000
  Hartree     4.39289     4.39289    -0.29626     0.00000     0.00000     0.00000
  E(xc)      -2.73244    -2.73244    -2.73244     0.00000     0.00000     0.00000
  Local      -9.74187    -9.74187    -0.31239     0.00000     0.00000     0.00000
  n-local    -1.83762    -1.83765    -1.83756     0.00003     0.00000     0.00000
  augment     0.10546     0.10546     0.10546     0.00000     0.00000     0.00000
  Kinetic     8.17425     8.17416     8.17421     0.00008     0.00000     0.00000
  Fock        0.00000     0.00000     0.00000     0.00000     0.00000     0.00000
  -------------------------------------------------------------------------------------
  Total      -0.00976    -0.00976    -0.00968     0.00000     0.00000     0.00000
  in kB      -0.00461    -0.00461    -0.00457     0.00000     0.00000     0.00000
  external pressure =        0.00 kB  Pullay stress =        0.00 kB


 VOLUME and BASIS-vectors are now :
 -----------------------------------------------------------------------------
  energy-cutoff  :      520.00
  volume of cell :     3391.56
      direct lattice vectors                 reciprocal lattice vectors
    10.231375098  0.000000000  0.000000000     0.097738573  0.056429391  0.000000000
    -5.115687549  8.860630751  0.000000000     0.000000000  0.112858783  0.000000000
     0.000000000  0.000000000 37.411182405     0.000000000  0.000000000  0.026729976

  length of vectors
    10.231375098 10.231375098 37.411182405     0.112858783  0.112858783  0.026729976


 FORCES acting on ions
    electron-ion (+dipol)            ewald-force                    non-local-force                 convergence-correction
 -----------------------------------------------------------------------------------------------
   -.734E-17 -.124E-16 0.134E-16   -.677E-18 0.345E-17 0.000E+00   0.000E+00 0.000E+00 0.000E+00   -.403E-14 -.684E-14 0.209E-14
 -----------------------------------------------------------------------------------------------
   -.734E-17 -.124E-16 0.134E-16   -.677E-18 0.345E-17 0.000E+00   0.000E+00 0.000E+00 0.000E+00   -.403E-14 -.684E-14 0.209E-14
 
 
 POSITION                                       TOTAL-FORCE (eV/Angst)
 -----------------------------------------------------------------------------------
      0.00000      0.00000      0.00000         0.000000      0.000000      0.000000
 -----------------------------------------------------------------------------------
    total drift:                                0.000000      0.000000      0.000000


--------------------------------------------------------------------------------------------------------



  FREE ENERGIE OF THE ION-ELECTRON SYSTEM (eV)
  ---------------------------------------------------
  free  energy   TOTEN  =        -1.11720612 eV

  energy  without entropy=       -1.11720612  energy(sigma->0) =       -1.11720612
 
 d Force = 0.0000000E+00[ 0.000E+00, 0.000E+00]  d Energy = 0.7105427E-14-0.711E-14
 d Force = 0.0000000E+00[ 0.000E+00, 0.000E+00]  d Ewald  = 0.0000000E+00 0.000E+00


--------------------------------------------------------------------------------------------------------


    POTLOK:  cpu time    2.30: real time    2.31


--------------------------------------------------------------------------------------------------------


     LOOP+:  cpu time   58.20: real time   58.36
    4ORBIT:  cpu time    0.00: real time    0.00

 total amount of memory used by VASP on root node   261432. kBytes
========================================================================

   base      :      30000. kBytes
   nonlr-proj:        229. kBytes
   fftplans  :      52987. kBytes
   grid      :     169441. kBytes
   one-center:          2. kBytes
   wavefun   :       8773. kBytes
 
  
  
 General timing and accounting informations for this job:
 ========================================================
  
                  Total CPU time used (sec):     2991.104
                            User time (sec):     2551.360
                          System time (sec):      439.744
                         Elapsed time (sec):     3018.350
  
                   Maximum memory used (kb):      426996.
                   Average memory used (kb):           0.
  
                          Minor page faults:     25742329
                          Major page faults:            0
                 Voluntary context switches:       814160
