 vasp.5.3.5 31Mar14 (build Jun 18 2014 15:50:15) complex                         
 executed on           CrayXC_GCC date 2015.06.15  11:39:10
 running on  120 total cores
 distrk:  each k-point on  120 cores,    1 groups
 distr:  one band on NCORES_PER_BAND=   1 cores,  120 groups


--------------------------------------------------------------------------------------------------------


 INCAR:
 POTCAR:    PAW_PBE Fe_pv 02Aug2007               
 POTCAR:    PAW_PBE O 08Apr2002                   
 POTCAR:    PAW_PBE C 08Apr2002                   
 POTCAR:    PAW_PBE H 15Jun2001                   

 ----------------------------------------------------------------------------- 
|                                                                             |
|           W    W    AA    RRRRR   N    N  II  N    N   GGGG   !!!           |
|           W    W   A  A   R    R  NN   N  II  NN   N  G    G  !!!           |
|           W    W  A    A  R    R  N N  N  II  N N  N  G       !!!           |
|           W WW W  AAAAAA  RRRRR   N  N N  II  N  N N  G  GGG   !            |
|           WW  WW  A    A  R   R   N   NN  II  N   NN  G    G                |
|           W    W  A    A  R    R  N    N  II  N    N   GGGG   !!!           |
|                                                                             |
|      For optimal performance we recommend to set                            |
|        NCORE= 4 - approx SQRT( number of cores)                             |
|      NCORE specifies how many cores store one orbital (NPAR=cpu/NCORE).     |
|      This setting can  greatly improve the performance of VASP for DFT.     |
|      The default, NPAR=number of cores might be grossly inefficient         |
|      on modern multi-core architectures or massively parallel machines.     |
|      Do your own testing !!!!                                               |
|      Unfortunately you need to use the default for GW and RPA calculations. |
|      (for HF NCORE is supported but not extensively tested yet)             |
|                                                                             |
 ----------------------------------------------------------------------------- 

 POTCAR:    PAW_PBE Fe_pv 02Aug2007               
   VRHFIN =Fe:  3pd7s1                                                          
   LEXCH  = PE                                                                  
   EATOM  =  2457.4239 eV,  180.6156 Ry                                         
                                                                                
   TITEL  = PAW_PBE Fe_pv 02Aug2007                                             
   LULTRA =        F    use ultrasoft PP ?                                      
   IUNSCR =        1    unscreen: 0-lin 1-nonlin 2-no                           
   RPACOR =    1.750    partial core radius                                     
   POMASS =   55.847; ZVAL   =   14.000    mass and valenz                      
   RCORE  =    2.200    outmost cutoff radius                                   
   RWIGS  =    2.200; RWIGS  =    1.164    wigner-seitz radius (au A)           
   ENMAX  =  293.238; ENMIN  =  219.928 eV                                      
   ICORE  =        3    local potential                                         
   LCOR   =        T    correct aug charges                                     
   LPAW   =        T    paw PP                                                  
   EAUG   =  578.342                                                            
   DEXC   =    0.000                                                            
   RMAX   =    2.249    core radius for proj-oper                               
   RAUG   =    1.300    factor for augmentation sphere                          
   RDEP   =    2.296    radius for radial grids                                 
   RDEPT  =    1.766    core radius for aug-charge                              
                                                                                
   Atomic configuration                                                         
    8 entries                                                                   
     n  l   j            E        occ.                                          
     1  0  0.50     -6993.8440   2.0000                                         
     2  0  0.50      -814.6047   2.0000                                         
     2  1  1.50      -693.3689   6.0000                                         
     3  0  0.50       -89.4732   2.0000                                         
     3  1  1.50       -55.6373   6.0000                                         
     3  2  2.50        -3.8151   7.0000                                         
     4  0  0.50        -4.2551   1.0000                                         
     4  3  2.50        -1.3606   0.0000                                         
   Description                                                                  
     l       E           TYP  RCUT    TYP  RCUT                                 
     1    -55.6372668     23  2.000                                             
     1     -5.4423304     23  2.000                                             
     2     -3.8151096     23  2.200                                             
     2     -5.1756922     23  2.200                                             
     0     -4.2550951     23  2.200                                             
     0     27.2116520     23  2.200                                             
     3     -1.3605826     23  2.200                                             
  local pseudopotential read in
  partial core-charges read in
  partial kinetic energy density read in
  atomic valenz-charges read in
  non local Contribution for L=           1  read in
    real space projection operators read in
  non local Contribution for L=           1  read in
    real space projection operators read in
  non local Contribution for L=           2  read in
    real space projection operators read in
  non local Contribution for L=           2  read in
    real space projection operators read in
  non local Contribution for L=           0  read in
    real space projection operators read in
  non local Contribution for L=           0  read in
    real space projection operators read in
    PAW grid and wavefunctions read in

   number of l-projection  operators is LMAX  =           6
   number of lm-projection operators is LMMAX =          18

 POTCAR:    PAW_PBE O 08Apr2002                   
   VRHFIN =O: s2p4                                                              
   LEXCH  = PE                                                                  
   EATOM  =   432.3788 eV,   31.7789 Ry                                         
                                                                                
   TITEL  = PAW_PBE O 08Apr2002                                                 
   LULTRA =        F    use ultrasoft PP ?                                      
   IUNSCR =        1    unscreen: 0-lin 1-nonlin 2-no                           
   RPACOR =    1.200    partial core radius                                     
   POMASS =   16.000; ZVAL   =    6.000    mass and valenz                      
   RCORE  =    1.520    outmost cutoff radius                                   
   RWIGS  =    1.550; RWIGS  =    0.820    wigner-seitz radius (au A)           
   ENMAX  =  400.000; ENMIN  =  300.000 eV                                      
   ICORE  =        2    local potential                                         
   LCOR   =        T    correct aug charges                                     
   LPAW   =        T    paw PP                                                  
   EAUG   =  605.392                                                            
   DEXC   =    0.000                                                            
   RMAX   =    1.553    core radius for proj-oper                               
   RAUG   =    1.300    factor for augmentation sphere                          
   RDEP   =    1.550    radius for radial grids                                 
   RDEPT  =    1.329    core radius for aug-charge                              
                                                                                
   Atomic configuration                                                         
    4 entries                                                                   
     n  l   j            E        occ.                                          
     1  0  0.50      -514.6923   2.0000                                         
     2  0  0.50       -23.9615   2.0000                                         
     2  1  0.50        -9.0305   4.0000                                         
     3  2  1.50        -9.5241   0.0000                                         
   Description                                                                  
     l       E           TYP  RCUT    TYP  RCUT                                 
     0    -23.9615318     23  1.200                                             
     0     -9.5240782     23  1.200                                             
     1     -9.0304911     23  1.520                                             
     1      8.1634956     23  1.520                                             
     2     -9.5240782      7  1.500                                             
  local pseudopotential read in
  partial core-charges read in
  partial kinetic energy density read in
  kinetic energy density of atom read in
  atomic valenz-charges read in
  non local Contribution for L=           0  read in
    real space projection operators read in
  non local Contribution for L=           0  read in
    real space projection operators read in
  non local Contribution for L=           1  read in
    real space projection operators read in
  non local Contribution for L=           1  read in
    real space projection operators read in
    PAW grid and wavefunctions read in

   number of l-projection  operators is LMAX  =           4
   number of lm-projection operators is LMMAX =           8

 POTCAR:    PAW_PBE C 08Apr2002                   
   VRHFIN =C: s2p2                                                              
   LEXCH  = PE                                                                  
   EATOM  =   147.1560 eV,   10.8157 Ry                                         
                                                                                
   TITEL  = PAW_PBE C 08Apr2002                                                 
   LULTRA =        F    use ultrasoft PP ?                                      
   IUNSCR =        1    unscreen: 0-lin 1-nonlin 2-no                           
   RPACOR =    1.200    partial core radius                                     
   POMASS =   12.011; ZVAL   =    4.000    mass and valenz                      
   RCORE  =    1.500    outmost cutoff radius                                   
   RWIGS  =    1.630; RWIGS  =    0.863    wigner-seitz radius (au A)           
   ENMAX  =  400.000; ENMIN  =  300.000 eV                                      
   ICORE  =        2    local potential                                         
   LCOR   =        T    correct aug charges                                     
   LPAW   =        T    paw PP                                                  
   EAUG   =  644.873                                                            
   DEXC   =    0.000                                                            
   RMAX   =    1.529    core radius for proj-oper                               
   RAUG   =    1.300    factor for augmentation sphere                          
   RDEP   =    1.501    radius for radial grids                                 
   RDEPT  =    1.300    core radius for aug-charge                              
                                                                                
   Atomic configuration                                                         
    4 entries                                                                   
     n  l   j            E        occ.                                          
     1  0  0.50      -273.3789   2.0000                                         
     2  0  0.50       -13.7508   2.0000                                         
     2  1  0.50        -5.2854   2.0000                                         
     3  2  1.50        -5.4423   0.0000                                         
   Description                                                                  
     l       E           TYP  RCUT    TYP  RCUT                                 
     0    -13.7508458     23  1.200                                             
     0     -8.2022199     23  1.200                                             
     1     -5.2854383     23  1.500                                             
     1     34.0145650     23  1.500                                             
     2     -5.4423304      7  1.500                                             
  local pseudopotential read in
  partial core-charges read in
  partial kinetic energy density read in
  atomic valenz-charges read in
  non local Contribution for L=           0  read in
    real space projection operators read in
  non local Contribution for L=           0  read in
    real space projection operators read in
  non local Contribution for L=           1  read in
    real space projection operators read in
  non local Contribution for L=           1  read in
    real space projection operators read in
    PAW grid and wavefunctions read in

   number of l-projection  operators is LMAX  =           4
   number of lm-projection operators is LMMAX =           8

 POTCAR:    PAW_PBE H 15Jun2001                   
   VRHFIN =H: ultrasoft test                                                    
   LEXCH  = PE                                                                  
   EATOM  =    12.4884 eV,    0.9179 Ry                                         
                                                                                
   TITEL  = PAW_PBE H 15Jun2001                                                 
   LULTRA =        F    use ultrasoft PP ?                                      
   IUNSCR =        0    unscreen: 0-lin 1-nonlin 2-no                           
   RPACOR =    0.000    partial core radius                                     
   POMASS =    1.000; ZVAL   =    1.000    mass and valenz                      
   RCORE  =    1.100    outmost cutoff radius                                   
   RWIGS  =    0.700; RWIGS  =    0.370    wigner-seitz radius (au A)           
   ENMAX  =  250.000; ENMIN  =  200.000 eV                                      
   RCLOC  =    0.701    cutoff for local pot                                    
   LCOR   =        T    correct aug charges                                     
   LPAW   =        T    paw PP                                                  
   EAUG   =  400.000                                                            
   RMAX   =    1.123    core radius for proj-oper                               
   RAUG   =    1.200    factor for augmentation sphere                          
   RDEP   =    1.112    radius for radial grids                                 
   RDEPT  =    0.926    core radius for aug-charge                              
                                                                                
   Atomic configuration                                                         
    2 entries                                                                   
     n  l   j            E        occ.                                          
     1  0  0.50        -6.4927   1.0000                                         
     2  1  0.50        -3.4015   0.0000                                         
   Description                                                                  
     l       E           TYP  RCUT    TYP  RCUT                                 
     0     -6.4927494     23  1.100                                             
     0      6.8029130     23  1.100                                             
     1     -4.0817478     23  1.100                                             
  local pseudopotential read in
  atomic valenz-charges read in
  non local Contribution for L=           0  read in
    real space projection operators read in
  non local Contribution for L=           0  read in
    real space projection operators read in
  non local Contribution for L=           1  read in
    real space projection operators read in
    PAW grid and wavefunctions read in

   number of l-projection  operators is LMAX  =           3
   number of lm-projection operators is LMMAX =           5

 Optimization of the real space projectors (new method)

 maximal supplied QI-value         = 17.01
 optimisation between [QCUT,QGAM] = [ 11.57, 23.30] = [ 37.45,152.03] Ry 
 Optimized for a Real-space Cutoff    1.40 Angstroem

   l    n(q)    QCUT    max X(q) W(low)/X(q) W(high)/X(q)  e(spline) 
   1      9    11.565     4.267    0.25E-03    0.26E-03    0.15E-06
   1      9    11.565     5.750    0.39E-03    0.39E-03    0.22E-06
   2      9    11.565    53.656    0.10E-03    0.13E-03    0.16E-06
   2      9    11.565    49.521    0.10E-03    0.13E-03    0.16E-06
   0     10    11.565    31.246    0.56E-04    0.21E-04    0.74E-07
   0     10    11.565    12.201    0.39E-04    0.19E-04    0.62E-07
 Optimization of the real space projectors (new method)

 maximal supplied QI-value         = 24.76
 optimisation between [QCUT,QGAM] = [ 11.64, 23.27] = [ 37.91,151.63] Ry 
 Optimized for a Real-space Cutoff    1.04 Angstroem

   l    n(q)    QCUT    max X(q) W(low)/X(q) W(high)/X(q)  e(spline) 
   0      7    11.635    20.381    0.14E-03    0.49E-03    0.18E-06
   0      7    11.635    15.268    0.16E-03    0.52E-03    0.19E-06
   1      7    11.635     5.964    0.30E-03    0.44E-03    0.22E-06
   1      7    11.635     5.382    0.27E-03    0.34E-03    0.19E-06
 Optimization of the real space projectors (new method)

 maximal supplied QI-value         = 25.13
 optimisation between [QCUT,QGAM] = [ 11.56, 23.12] = [ 37.43,149.72] Ry 
 Optimized for a Real-space Cutoff    1.04 Angstroem

   l    n(q)    QCUT    max X(q) W(low)/X(q) W(high)/X(q)  e(spline) 
   0      7    11.561   115.676    0.20E-03    0.60E-03    0.21E-06
   0      7    11.561    87.132    0.20E-03    0.59E-03    0.21E-06
   1      7    11.561     4.429    0.23E-03    0.35E-03    0.15E-06
   1      7    11.561     2.733    0.18E-03    0.25E-03    0.12E-06
 Optimization of the real space projectors (new method)

 maximal supplied QI-value         = 34.20
 optimisation between [QCUT,QGAM] = [ 11.63, 23.26] = [ 37.87,151.49] Ry 
 Optimized for a Real-space Cutoff    1.14 Angstroem

   l    n(q)    QCUT    max X(q) W(low)/X(q) W(high)/X(q)  e(spline) 
   0      8    11.629    19.460    0.27E-03    0.65E-03    0.17E-06
   0      8    11.629    12.209    0.25E-03    0.62E-03    0.16E-06
   1      7    11.629     4.655    0.29E-03    0.85E-04    0.19E-06
  PAW_PBE Fe_pv 02Aug2007               :
 energy of atom  1       EATOM=-2457.4239
 kinetic energy error for atom=    0.0062 (will be added to EATOM!!)
  PAW_PBE O 08Apr2002                   :
 energy of atom  2       EATOM= -432.3788
 kinetic energy error for atom=    0.0208 (will be added to EATOM!!)
  PAW_PBE C 08Apr2002                   :
 energy of atom  3       EATOM= -147.1560
 kinetic energy error for atom=    0.0071 (will be added to EATOM!!)
  PAW_PBE H 15Jun2001                   :
 energy of atom  4       EATOM=  -12.4884
 kinetic energy error for atom=    0.0014 (will be added to EATOM!!)


 POSCAR:  hematite with methane                  
  positions in direct lattice
  velocities in cartesian coordinates
 exchange correlation table for  LEXCH =        8
   RHO(1)=    0.500       N(1)  =     2000
   RHO(2)=  100.500       N(2)  =     4000



--------------------------------------------------------------------------------------------------------


 ion  position               nearest neighbor table
   1  0.035  0.041  0.139-  64 1.98  98 1.98  84 1.98  49 2.16  51 2.16 107 2.16
   2  0.035  0.041  0.247-  59 1.98  55 1.98 111 1.98  54 2.15  68 2.15  88 2.15
   3  0.035  0.041  0.063-  96 1.94  56 1.94  76 1.94 107 2.10  51 2.10  49 2.10
   4  0.038  0.043  0.323-  63 1.93  65 1.94 115 1.95  54 2.09  88 2.10  68 2.12
   5  0.368  0.209  0.263-  54 1.97  50 1.98  70 1.98  57 2.13  59 2.14  73 2.14
   6  0.369  0.201  0.363-  63 1.83  83 1.83  61 1.94 121 2.21
   7  0.368  0.207  0.185-  66 1.98  64 1.98  80 1.98  59 2.13  73 2.13  57 2.15
   8  0.368  0.207  0.073-  53 2.03  69 2.03  49 2.03  58 2.06  56 2.06  78 2.06
   9  0.201  0.374  0.032-  56 1.81  60 1.81  94 1.81
  10  0.201  0.374  0.124-  51 1.98  53 1.98  85 1.98 102 2.12  62 2.12  64 2.12
  11  0.198  0.373  0.313-  52 2.02  54 2.02  99 2.03  65 2.04  86 2.05  61 2.11
  12  0.201  0.374  0.201-  95 1.97  57 1.97  55 1.97  64 2.14 102 2.15  62 2.15
  13  0.535  0.041  0.139-  82 1.98  66 1.98 116 1.98  69 2.16  67 2.16  89 2.16
  14  0.533  0.043  0.248-  73 1.97  93 1.99  77 1.99  50 2.11  72 2.14 106 2.24
  15  0.535  0.041  0.063- 114 1.94  74 1.94  58 1.94  89 2.10  67 2.10  69 2.10
  16  0.535  0.044  0.324-  83 1.92  97 1.93  81 1.95  72 2.10  50 2.12 106 2.14
  17  0.866  0.205  0.262-  68 1.97  72 1.98  52 1.98  77 2.11  55 2.13  75 2.13
  18  0.869  0.208  0.355-  81 1.81  79 1.81  65 1.82
  19  0.868  0.208  0.185-  62 1.97  84 1.98  82 1.98  55 2.13  75 2.13  77 2.16
  20  0.868  0.207  0.073-  67 2.03  71 2.03  51 2.04  76 2.06  60 2.06  74 2.06
  21  0.701  0.374  0.032-  74 1.81 112 1.81  78 1.81
  22  0.701  0.374  0.124-  71 1.98  69 1.98 103 1.98  80 2.12 120 2.12  82 2.12
  23  0.700  0.373  0.314-  72 2.04  83 2.04  70 2.04 104 2.06  79 2.06 117 2.06
  24  0.701  0.374  0.201-  75 1.97  73 1.97 113 1.97  80 2.14  82 2.14 120 2.14
  25  0.034  0.540  0.139- 120 1.98  62 1.98 100 1.98  71 2.16  85 2.16  87 2.16
  26  0.033  0.538  0.248-  75 1.97  91 1.98  95 1.99  52 2.12 104 2.13  90 2.23
  27  0.035  0.541  0.063-  60 1.94  92 1.94 112 1.94  87 2.10  85 2.10  71 2.10
  28  0.034  0.541  0.324-  99 1.93  79 1.94 101 1.94 104 2.10  90 2.13  52 2.13
  29  0.368  0.708  0.260- 106 1.99  90 1.99  86 2.00  93 2.08  95 2.08 109 2.08
  30  0.369  0.709  0.338-  97 1.84 119 1.84  99 1.85
  31  0.368  0.707  0.184- 100 1.97 116 1.97 102 1.97  93 2.16 109 2.16  95 2.16
  32  0.368  0.707  0.073- 105 2.03  85 2.03  89 2.04  94 2.06 114 2.06  92 2.06
  33  0.201  0.874  0.032-  58 1.81  96 1.81  92 1.81
  34  0.201  0.874  0.124-  49 1.98  89 1.98  87 1.98 100 2.12  98 2.12  66 2.12
  35  0.204  0.879  0.314-  63 2.02  97 2.03  88 2.04  50 2.04  90 2.07 101 2.07
  36  0.201  0.874  0.201-  91 1.97  93 1.97  59 1.98  98 2.14  66 2.14 100 2.15
  37  0.535  0.541  0.139-  80 1.98 118 1.98 102 1.98 103 2.15  53 2.16 105 2.16
  38  0.538  0.542  0.247- 113 1.97  57 1.98 109 1.98  70 2.13 108 2.14  86 2.23
  39  0.535  0.541  0.063-  78 1.94  94 1.94 110 1.94 105 2.10  53 2.10 103 2.10
  40  0.540  0.543  0.323- 119 1.93 117 1.93  61 1.98  70 2.08 108 2.09  86 2.13
  41  0.871  0.709  0.262-  88 1.98 108 1.98 104 1.98  91 2.11 111 2.13 113 2.14
  42  0.870  0.709  0.356- 101 1.81 115 1.81 117 1.82
  43  0.868  0.707  0.185-  98 1.97 118 1.97 120 1.98 113 2.13 111 2.14  91 2.16
  44  0.868  0.707  0.073-  87 2.03 107 2.03 103 2.03 112 2.06  96 2.06 110 2.06
  45  0.701  0.874  0.032-  76 1.81 110 1.81 114 1.81
  46  0.701  0.874  0.124- 107 1.98 105 1.98  67 1.98 116 2.11 118 2.12  84 2.12
  47  0.705  0.875  0.314-  68 2.03 119 2.04 115 2.04 108 2.05  81 2.05 106 2.05
  48  0.702  0.875  0.201-  77 1.97 109 1.97 111 1.98  84 2.14 118 2.15 116 2.15
  49  0.190  0.041  0.100-  34 1.98   8 2.03   3 2.10   1 2.16
  50  0.381  0.042  0.286-   5 1.98  35 2.04  14 2.11  16 2.12
  51  0.035  0.196  0.100-  10 1.98  20 2.04   3 2.10   1 2.16
  52  0.033  0.385  0.286-  17 1.98  11 2.02  26 2.12  28 2.13
  53  0.379  0.385  0.100-  10 1.98   8 2.03  39 2.10  37 2.16
  54  0.189  0.198  0.286-   5 1.97  11 2.02   4 2.09   2 2.15
  55  0.020  0.207  0.224-  12 1.97   2 1.98  17 2.13  19 2.13
  56  0.208  0.201  0.039-   9 1.81   3 1.94   8 2.06
  57  0.369  0.362  0.224-  12 1.97  38 1.98   5 2.13   7 2.15
  58  0.374  0.053  0.039-  33 1.81  15 1.94   8 2.06
  59  0.215  0.056  0.224-  36 1.98   2 1.98   7 2.13   5 2.14
  60  0.022  0.367  0.039-   9 1.81  27 1.94  20 2.06
  61  0.363  0.380  0.348- 123 1.22   6 1.94  40 1.98  11 2.11
  62  0.048  0.375  0.162-  19 1.97  25 1.98  10 2.12  12 2.15
  63  0.199  0.031  0.347-   6 1.83   4 1.93  35 2.02
  64  0.201  0.221  0.162-   7 1.98   1 1.98  10 2.12  12 2.14
  65  0.048  0.214  0.348-  18 1.82   4 1.94  11 2.04
  66  0.355  0.027  0.162-   7 1.98  13 1.98  34 2.12  36 2.14
  67  0.690  0.041  0.100-  46 1.98  20 2.03  15 2.10  13 2.16
  68  0.880  0.041  0.286-  17 1.97  47 2.03   4 2.12   2 2.15
  69  0.535  0.196  0.100-  22 1.98   8 2.03  15 2.10  13 2.16
  70  0.536  0.389  0.286-   5 1.98  23 2.04  40 2.08  38 2.13
  71  0.879  0.385  0.100-  22 1.98  20 2.03  27 2.10  25 2.16
  72  0.689  0.195  0.286-  17 1.98  23 2.04  16 2.10  14 2.14
  73  0.521  0.208  0.224-  14 1.97  24 1.97   7 2.13   5 2.14
  74  0.708  0.201  0.039-  21 1.81  15 1.94  20 2.06
  75  0.868  0.360  0.224-  26 1.97  24 1.97  17 2.13  19 2.13
  76  0.874  0.053  0.039-  45 1.81   3 1.94  20 2.06
  77  0.713  0.053  0.224-  48 1.97  14 1.99  17 2.11  19 2.16
  78  0.522  0.368  0.039-  21 1.81  39 1.94   8 2.06
  79  0.861  0.379  0.348-  18 1.81  28 1.94  23 2.06
  80  0.549  0.375  0.162-  37 1.98   7 1.98  22 2.12  24 2.14
  81  0.698  0.031  0.347-  18 1.81  16 1.95  47 2.05
  82  0.701  0.221  0.162-  19 1.98  13 1.98  22 2.12  24 2.14
  83  0.547  0.216  0.348-   6 1.83  16 1.92  23 2.04
  84  0.855  0.027  0.162-  19 1.98   1 1.98  46 2.12  48 2.14
  85  0.190  0.541  0.100-  10 1.98  32 2.03  27 2.10  25 2.16
  86  0.378  0.545  0.287-  29 2.00  11 2.05  40 2.13  38 2.23
  87  0.035  0.696  0.100-  34 1.98  44 2.03  27 2.10  25 2.16
  88  0.037  0.887  0.286-  41 1.98  35 2.04   4 2.10   2 2.15
  89  0.379  0.885  0.100-  34 1.98  32 2.04  15 2.10  13 2.16
  90  0.197  0.698  0.287-  29 1.99  35 2.07  28 2.13  26 2.23
  91  0.022  0.707  0.224-  36 1.97  26 1.98  41 2.11  43 2.16
  92  0.208  0.701  0.039-  33 1.81  27 1.94  32 2.06
  93  0.370  0.861  0.224-  36 1.97  14 1.99  29 2.08  31 2.16
  94  0.374  0.553  0.039-   9 1.81  39 1.94  32 2.06
  95  0.214  0.555  0.224-  12 1.97  26 1.99  29 2.08  31 2.16
  96  0.022  0.868  0.039-  33 1.81   3 1.94  44 2.06
  97  0.362  0.882  0.347-  30 1.84  16 1.93  35 2.03
  98  0.049  0.875  0.162-  43 1.97   1 1.98  34 2.12  36 2.14
  99  0.196  0.528  0.347-  30 1.85  28 1.93  11 2.03
 100  0.200  0.721  0.162-  31 1.97  25 1.98  34 2.12  36 2.15
 101  0.047  0.715  0.347-  42 1.81  28 1.94  35 2.07
 102  0.355  0.527  0.162-  31 1.97  37 1.98  10 2.12  12 2.15
 103  0.690  0.541  0.100-  22 1.98  44 2.03  39 2.10  37 2.15
 104  0.881  0.541  0.286-  41 1.98  23 2.06  28 2.10  26 2.13
 105  0.535  0.696  0.100-  46 1.98  32 2.03  39 2.10  37 2.16
 106  0.530  0.878  0.288-  29 1.99  47 2.05  16 2.14  14 2.24
 107  0.879  0.885  0.100-  46 1.98  44 2.03   3 2.10   1 2.16
 108  0.692  0.697  0.286-  41 1.98  47 2.05  40 2.09  38 2.14
 109  0.521  0.706  0.224-  48 1.97  38 1.98  29 2.08  31 2.16
 110  0.708  0.701  0.039-  45 1.81  39 1.94  44 2.06
 111  0.869  0.861  0.224-  48 1.98   2 1.98  41 2.13  43 2.14
 112  0.874  0.553  0.039-  21 1.81  27 1.94  44 2.06
 113  0.716  0.555  0.224-  38 1.97  24 1.97  43 2.13  41 2.14
 114  0.522  0.868  0.039-  45 1.81  15 1.94  32 2.06
 115  0.865  0.881  0.348-  42 1.81   4 1.95  47 2.04
 116  0.549  0.875  0.162-  31 1.97  13 1.98  46 2.11  48 2.15
 117  0.698  0.530  0.348-  42 1.82  40 1.93  23 2.06
 118  0.701  0.721  0.162-  43 1.97  37 1.98  46 2.12  48 2.15
 119  0.549  0.714  0.347-  30 1.84  40 1.93  47 2.04
 120  0.855  0.527  0.162-  25 1.98  43 1.98  22 2.12  24 2.14
 121  0.352  0.292  0.415- 124 1.10 122 1.10 125 1.10 123 1.47   6 2.21
 122  0.449  0.290  0.427- 121 1.10
 123  0.354  0.363  0.380-  61 1.22 121 1.47
 124  0.245  0.197  0.425- 121 1.10
 125  0.357  0.396  0.425- 121 1.10

  LATTYP: Found a hexagonal cell.
 ALAT       =    10.2313750982
 C/A-ratio  =     3.6565155755
  
  Lattice vectors:
  
 A1 = (  10.2313750981,   0.0000000000,   0.0000000000)
 A2 = (  -5.1156875490,   8.8606307507,   0.0000000000)
 A3 = (   0.0000000000,   0.0000000000,  37.4111824051)


Analysis of symmetry for initial positions (statically):
=====================================================================
 Subroutine PRICEL returns:
 Original cell was already a primitive cell.
 

 Routine SETGRP: Setting up the symmetry group for a 
 hexagonal supercell.


 Subroutine GETGRP returns: Found  1 space group operations
 (whereof  1 operations were pure point group operations)
 out of a pool of 24 trial point group operations.


The static configuration has the point symmetry C_1 .


Analysis of symmetry for dynamics (positions and initial velocities):
=====================================================================
 Subroutine PRICEL returns:
 Original cell was already a primitive cell.
 

 Routine SETGRP: Setting up the symmetry group for a 
 hexagonal supercell.


 Subroutine GETGRP returns: Found  1 space group operations
 (whereof  1 operations were pure point group operations)
 out of a pool of 24 trial point group operations.


The dynamic configuration has the point symmetry C_1 .


Analysis of magnetic symmetry:
=====================================================================
 Subroutine PRICEL returns:
 Original cell was already a primitive cell.
 

 Subroutine MAGSYM returns: Found  1 space group operations
 (whereof  1 operations were pure point group operations)
 out of a pool of  1 trial space group operations
 (whereof  1 operations were pure point group operations)
 and found also     1 'primitive' translations


The magnetic configuration has the point symmetry C_1 .


 KPOINTS: kpoints                                 

Automatic generation of k-mesh.
Space group operators:
 irot       det(A)        alpha          n_x          n_y          n_z        tau_x        tau_y        tau_z
    1     1.000000     0.000001     1.000000     0.000000     0.000000     0.000000     0.000000     0.000000
 
 Subroutine IBZKPT returns following result:
 ===========================================
 
 Found      5 irreducible k-points:
 
 Following reciprocal coordinates:
            Coordinates               Weight
  0.000000  0.000000  0.000000      1.000000
  0.333333  0.000000  0.000000      2.000000
  0.000000  0.333333  0.000000      2.000000
  0.333333  0.333333  0.000000      2.000000
 -0.333333  0.333333  0.000000      2.000000
 
 Following cartesian coordinates:
            Coordinates               Weight
  0.000000  0.000000  0.000000      1.000000
  0.032580  0.018810  0.000000      2.000000
  0.000000  0.037620  0.000000      2.000000
  0.032580  0.056429  0.000000      2.000000
 -0.032580  0.018810  0.000000      2.000000
 


--------------------------------------------------------------------------------------------------------




 Dimension of arrays:
   k-points           NKPTS =      5   k-points in BZ     NKDIM =      5   number of bands    NBANDS=    720
   number of dos      NEDOS =    301   number of ions     NIONS =    125
   non local maximal  LDIM  =      6   non local SUM 2l+1 LMDIM =     18
   total plane-waves  NPLWV = 756000
   max r-space proj   IRMAX =   2632   max aug-charges    IRDMAX=  53008
   dimension x,y,z NGX =    60 NGY =   60 NGZ =  210
   dimension x,y,z NGXF=   120 NGYF=  120 NGZF=  420
   support grid    NGXF=   240 NGYF=  240 NGZF=  840
   ions per type =              48  72   1   4
 NGX,Y,Z   is equivalent  to a cutoff of   9.75,  9.75,  9.33 a.u.
 NGXF,Y,Z  is equivalent  to a cutoff of  19.50, 19.50, 18.66 a.u.


 I would recommend the setting:
   dimension x,y,z NGX =    57 NGY =   57 NGZ =  209
 SYSTEM =  fe2O3 (0001) surface scan               
 POSCAR =   hematite with methane                  

 Startparameter for this run:
   NWRITE =      2    write-flag & timer
   PREC   = normal    normal or accurate (medium, high low for compatibility)
   ISTART =      0    job   : 0-new  1-cont  2-samecut
   ICHARG =      2    charge: 1-file 2-atom 10-const
   ISPIN  =      2    spin polarized calculation?
   LNONCOLLINEAR =      F non collinear calculations
   LSORBIT =      F    spin-orbit coupling
   INIWAV =      1    electr: 0-lowe 1-rand  2-diag
   LASPH  =      T    aspherical Exc in radial PAW
   METAGGA=      F    non-selfconsistent MetaGGA calc.

 Electronic Relaxation 1
   ENCUT  =  520.0 eV  38.22 Ry    6.18 a.u.  19.02 19.02 69.56*2*pi/ulx,y,z
   ENINI  =  520.0     initial cutoff
   ENAUG  =  644.9 eV  augmentation charge cutoff
   NELM   =    300;   NELMIN=  5; NELMDL= -5     # of ELM steps 
   EDIFF  = 0.1E-05   stopping-criterion for ELM
   LREAL  =      T    real-space projection
   NLSPLINE    = F    spline interpolate recip. space projectors
   LCOMPAT=      F    compatible to vasp.4.4
   GGA_COMPAT  = T    GGA compatible to vasp.4.4-vasp.4.6
   LMAXPAW     = -100 max onsite density
   LMAXMIX     =    4 max onsite mixed and CHGCAR
   VOSKOWN=      1    Vosko Wilk Nusair interpolation
   ROPT   =   -0.00050  -0.00050  -0.00050  -0.00050
 Ionic relaxation
   EDIFFG = -.1E-02   stopping-criterion for IOM
   NSW    =      1    number of steps for IOM
   NBLOCK =      1;   KBLOCK =      1    inner block; outer block 
   IBRION =      2    ionic relax: 0-MD 1-quasi-New 2-CG
   NFREE  =      1    steps in history (QN), initial steepest desc. (CG)
   ISIF   =      2    stress and relaxation
   IWAVPR =     11    prediction:  0-non 1-charg 2-wave 3-comb
   ISYM   =      2    0-nonsym 1-usesym 2-fastsym
   LCORR  =      T    Harris-Foulkes like correction to forces

   POTIM  = 0.5000    time-step for ionic-motion
   TEIN   =    0.0    initial temperature
   TEBEG  =    0.0;   TEEND  =   0.0 temperature during run
   SMASS  =  -3.00    Nose mass-parameter (am)
   estimated Nose-frequenzy (Omega)   =  0.10E-29 period in steps =****** mass=  -0.239E-26a.u.
   SCALEE = 1.0000    scale energy and forces
   NPACO  =    256;   APACO  = 16.0  distance and # of slots for P.C.
   PSTRESS=    0.0 pullay stress

  Mass of Ions in am
   POMASS =  55.85 16.00 12.01  1.00
  Ionic Valenz
   ZVAL   =  14.00  6.00  4.00  1.00
  Atomic Wigner-Seitz radii
   RWIGS  =  -1.00 -1.00 -1.00 -1.00
  virtual crystal weights 
   VCA    =   1.00  1.00  1.00  1.00
   NELECT =    1112.0000    total number of electrons
   NUPDOWN=       0.0000    fix difference up-down

 DOS related values:
   EMIN   =  10.00;   EMAX   =-10.00  energy-range for DOS
   EFERMI =   0.00
   ISMEAR =     0;   SIGMA  =   0.10  broadening in eV -4-tet -1-fermi 0-gaus

 Electronic relaxation 2 (details)
   IALGO  =     68    algorithm
   LDIAG  =      T    sub-space diagonalisation (order eigenvalues)
   LSUBROT=      F    optimize rotation matrix (better conditioning)
   TURBO    =      0    0=normal 1=particle mesh
   IRESTART =      0    0=no restart 2=restart with 2 vectors
   NREBOOT  =      0    no. of reboots
   NMIN     =      0    reboot dimension
   EREF     =   0.00    reference energy to select bands
   IMIX   =      4    mixing-type and parameters
     AMIX     =   0.01;   BMIX     =  0.00
     AMIX_MAG =   0.80;   BMIX_MAG =  0.00
     AMIN     =   0.01
     WC   =   100.;   INIMIX=   1;  MIXPRE=   1;  MAXMIX=  60

 Intra band minimization:
   WEIMIN = 0.0010     energy-eigenvalue tresh-hold
   EBREAK =  0.35E-09  absolut break condition
   DEPER  =   0.30     relativ break condition  

   TIME   =   0.40     timestep for ELM

  volume/ion in A,a.u.               =      27.13       183.10
  Fermi-wavevector in a.u.,A,eV,Ry     =   1.128868  2.133251 17.338481  1.274342
  Thomas-Fermi vector in A             =   2.265559

 Write flags
   LWAVE  =      T    write WAVECAR
   LCHARG =      T    write CHGCAR
   LVTOT  =      F    write LOCPOT, total local potential
   LVHAR  =      F    write LOCPOT, Hartree potential only
   LELF   =      F    write electronic localiz. function (ELF)
   LORBIT =      0    0 simple, 1 ext, 2 COOP (PROOUT)


 Dipole corrections
   LMONO  =      F    monopole corrections only (constant potential shift)
   LDIPOL =      T    correct potential (dipole corrections)
   IDIPOL =      3    1-x, 2-y, 3-z, 4-all directions 
   EPSILON=  1.0000000 bulk dielectric constant

 LDA+U is selected, type is set to LDAUTYPE =  2
   angular momentum for each species LDAUL =     2    1    1    0
   U (eV)           for each species LDAUU =   4.2  0.0  0.0  0.0
   J (eV)           for each species LDAUJ =   0.0  0.0  0.0  0.0
 Exchange correlation treatment:
   GGA     =    --    GGA type
   LEXCH   =     8    internal setting for exchange type
   VOSKOWN=      1    Vosko Wilk Nusair interpolation
   LHFCALC =     F    Hartree Fock is set to
   LHFONE  =     F    Hartree Fock one center treatment
   AEXX    =    0.0000 exact exchange contribution

 Linear response parameters
   LEPSILON=     F    determine dielectric tensor
   LRPA    =     F    only Hartree local field effects (RPA)
   LNABLA  =     F    use nabla operator in PAW spheres
   LVEL    =     F    velocity operator in full k-point grid
   LINTERFAST=   F  fast interpolation
   KINTER  =     0    interpolate to denser k-point grid
   CSHIFT  =0.1000    complex shift for real part using Kramers Kronig
   OMEGAMAX=  -1.0    maximum frequency
   DEG_THRESHOLD= 0.2000000E-02 threshold for treating states as degnerate
   RTIME   =    0.100 relaxation time in fs

 Orbital magnetization related:
   ORBITALMAG=     F  switch on orbital magnetization
   LCHIMAG   =     F  perturbation theory with respect to B field
   DQ        =  0.001000  dq finite difference perturbation B field



--------------------------------------------------------------------------------------------------------


 conjugate gradient relaxation of ions
 charge density and potential will be updated during run
 spin polarized calculation
 RMM-DIIS sequential band-by-band and
  variant of blocked Davidson during initial phase
 perform sub-space diagonalisation
    before iterative eigenvector-optimisation
 modified Broyden-mixing scheme, WC =      100.0
 initial mixing is a Kerker type mixing with AMIX =  0.0100 and BMIX =      0.0001
 Hartree-type preconditioning will be used
 using additional bands          164
 real space projection scheme for non local part
 use partial core corrections
 calculate Harris-corrections to forces   (improved forces if not selfconsistent)
 use gradient corrections 
 use of overlap-Matrix (Vanderbilt PP)
 Gauss-broadening in eV      SIGMA  =   0.10


--------------------------------------------------------------------------------------------------------


  energy-cutoff  :      520.00
  volume of cell :     3391.56
      direct lattice vectors                 reciprocal lattice vectors
    10.231375098  0.000000000  0.000000000     0.097738573  0.056429391 -0.000000000
    -5.115687549  8.860630751  0.000000000     0.000000000  0.112858783  0.000000000
     0.000000000  0.000000000 37.411182405     0.000000000 -0.000000000  0.026729976

  length of vectors
    10.231375098 10.231375098 37.411182405     0.112858783  0.112858783  0.026729976



 k-points in units of 2pi/SCALE and weight: kpoints                                 
   0.00000000  0.00000000  0.00000000       0.111
   0.03257952  0.01880980  0.00000000       0.222
   0.00000000  0.03761959  0.00000000       0.222
   0.03257952  0.05642939  0.00000000       0.222
  -0.03257952  0.01880980  0.00000000       0.222

 k-points in reciprocal lattice and weights: kpoints                                 
   0.00000000  0.00000000  0.00000000       0.111
   0.33333333  0.00000000  0.00000000       0.222
   0.00000000  0.33333333  0.00000000       0.222
   0.33333333  0.33333333  0.00000000       0.222
  -0.33333333  0.33333333  0.00000000       0.222

 position of ions in fractional coordinates (direct lattice) 
   0.03476810  0.04078064  0.13891583
   0.03501964  0.04134981  0.24720206
   0.03454930  0.04067753  0.06314262
   0.03820303  0.04261515  0.32298338
   0.36804319  0.20909292  0.26281688
   0.36903661  0.20069749  0.36268540
   0.36806264  0.20744520  0.18504980
   0.36789451  0.20736394  0.07283933
   0.20116828  0.37393865  0.03237854
   0.20127557  0.37387979  0.12394784
   0.19750760  0.37278029  0.31296447
   0.20145496  0.37388442  0.20129216
   0.53460160  0.04101517  0.13877460
   0.53320274  0.04256618  0.24755013
   0.53460356  0.04070159  0.06306971
   0.53526051  0.04408063  0.32365202
   0.86632623  0.20546941  0.26220645
   0.86917994  0.20790797  0.35548373
   0.86815035  0.20753680  0.18485128
   0.86788284  0.20733132  0.07282840
   0.70119967  0.37398738  0.03232700
   0.70128029  0.37401457  0.12396565
   0.70031172  0.37334254  0.31358853
   0.70147181  0.37414867  0.20113302
   0.03438429  0.54040632  0.13874748
   0.03295143  0.53815683  0.24758063
   0.03463759  0.54074913  0.06305697
   0.03351859  0.54055327  0.32367928
   0.36828431  0.70762854  0.25996973
   0.36948341  0.70904888  0.33805843
   0.36803437  0.70749200  0.18396445
   0.36793833  0.70736647  0.07277648
   0.20119064  0.87396505  0.03237815
   0.20125770  0.87409627  0.12397740
   0.20375433  0.87884514  0.31375113
   0.20129315  0.87448653  0.20135880
   0.53502377  0.54066620  0.13875933
   0.53776656  0.54181846  0.24722529
   0.53459014  0.54070790  0.06305376
   0.53988603  0.54337322  0.32287291
   0.87077441  0.70863089  0.26234834
   0.86958880  0.70909242  0.35570993
   0.86808167  0.70748895  0.18487408
   0.86796640  0.70739111  0.07283076
   0.70117789  0.87394895  0.03236479
   0.70141174  0.87407124  0.12395281
   0.70489602  0.87530725  0.31381559
   0.70194557  0.87460851  0.20132895
   0.19002528  0.04072471  0.09989540
   0.38084287  0.04155280  0.28556043
   0.03463116  0.19615829  0.09985817
   0.03311776  0.38490798  0.28583494
   0.37905492  0.38523118  0.09977722
   0.18943065  0.19796618  0.28588064
   0.02005486  0.20668865  0.22370957
   0.20766769  0.20141157  0.03860710
   0.36920817  0.36239249  0.22421522
   0.37363046  0.05305587  0.03863038
   0.21528921  0.05580813  0.22385350
   0.02213248  0.36746971  0.03859189
   0.36280752  0.37956583  0.34786427
   0.04847973  0.37455958  0.16208085
   0.19861512  0.03139858  0.34728962
   0.20078905  0.22083818  0.16227535
   0.04751867  0.21438403  0.34762694
   0.35475826  0.02698669  0.16218493
   0.69009167  0.04066539  0.09981348
   0.87993843  0.04063098  0.28613800
   0.53479133  0.19631928  0.09981417
   0.53579337  0.38858539  0.28614530
   0.87896904  0.38527860  0.09980064
   0.68859524  0.19536097  0.28612984
   0.52073055  0.20797103  0.22388196
   0.70774780  0.20149594  0.03856576
   0.86795491  0.35995095  0.22379079
   0.87365493  0.05298108  0.03863825
   0.71302084  0.05345396  0.22428009
   0.52219120  0.36751032  0.03858062
   0.86073194  0.37860356  0.34767027
   0.54863921  0.37477183  0.16218581
   0.69805094  0.03085515  0.34724429
   0.70058707  0.22052849  0.16219338
   0.54656781  0.21551035  0.34772308
   0.85453196  0.02669198  0.16223974
   0.19005970  0.54052849  0.09979234
   0.37830272  0.54512057  0.28735352
   0.03479246  0.69636511  0.09976634
   0.03672782  0.88721656  0.28608962
   0.37894414  0.88528002  0.09978129
   0.19682090  0.69794944  0.28746952
   0.02217553  0.70670207  0.22424247
   0.20778443  0.70143816  0.03852431
   0.36955525  0.86149301  0.22351175
   0.37371249  0.55301570  0.03857547
   0.21381600  0.55455743  0.22359061
   0.02221561  0.86758267  0.03861764
   0.36192875  0.88202145  0.34708118
   0.04882828  0.87472170  0.16225025
   0.19598768  0.52763576  0.34668952
   0.20046775  0.72065636  0.16200441
   0.04653309  0.71495443  0.34740385
   0.35470903  0.52658339  0.16199126
   0.69002456  0.54057241  0.09983883
   0.88073555  0.54066089  0.28621027
   0.53488057  0.69639222  0.09975311
   0.52985719  0.87836949  0.28765858
   0.87916683  0.88526055  0.09986568
   0.69194937  0.69686117  0.28588747
   0.52106364  0.70613496  0.22351050
   0.70784424  0.70148996  0.03856848
   0.86940570  0.86090164  0.22378973
   0.87366421  0.55302335  0.03861525
   0.71612774  0.55532495  0.22375565
   0.52215882  0.86754963  0.03855780
   0.86464861  0.88139623  0.34763999
   0.54885379  0.87489404  0.16197129
   0.69842906  0.53008575  0.34773728
   0.70084613  0.72063250  0.16213182
   0.54938162  0.71436874  0.34694440
   0.85488812  0.52688807  0.16216150
   0.35168003  0.29228674  0.41484728
   0.44869168  0.28986511  0.42685236
   0.35372663  0.36275838  0.38035564
   0.24528399  0.19686817  0.42452264
   0.35691563  0.39606597  0.42491849

 position of ions in cartesian coordinates  (Angst):
   0.14710445  0.36134218  5.19700537
   0.14676632  0.36638543  9.24812137
   0.14539337  0.36042854  2.36224008
   0.17286376  0.37759715 12.08319016
   2.69593383  1.85269519  9.83229033
   2.74904637  1.77830633 13.56848965
   2.70456211  1.83809528  6.92293171
   2.70325754  1.83737534  2.72500562
   0.14527481  3.31333227  1.21131937
   0.14667371  3.31281077  4.63703526
   0.11374685  3.30306848 11.70837100
   0.14848534  3.31285182  7.53057766
   5.25988866  0.36342028  5.19172175
   5.23764202  0.37716319  9.26114319
   5.26151295  0.36064176  2.35951249
   5.25094835  0.39058218 12.10820483
   7.81259130  1.82058853  9.80945332
   7.82931377  1.84219571 13.29906652
   7.82067844  1.83890699  6.91550507
   7.81899268  1.83708626  2.72459649
   5.26103425  3.31376404  1.20939121
   5.26172003  3.31400503  4.63770166
   5.25524811  3.30805038 11.73171775
   5.26299353  3.31519319  7.52462397
  -2.41275135  4.78834089  5.19070734
  -2.41590378  4.76840893  9.26228408
  -2.41191343  4.79137841  2.35903569
  -2.42236032  4.78964289 12.10922455
   0.14804844  6.27003518  9.72577507
   0.15305085  6.28262028 12.64716558
   0.14618968  6.26882538  6.88232753
   0.14584928  6.26771308  2.72265418
  -2.41247524  7.74388161  1.21130471
  -2.41246037  7.74504433  4.63814129
  -2.41121021  7.78712229 11.73780074
  -2.41409409  7.74850226  7.53307073
   2.70814953  4.79064354  5.19115074
   2.73031744  4.80085330  9.24899041
   2.70349956  4.79101309  2.35891590
   2.74404881  4.81462948 12.07905749
   5.28408546  6.27891662  9.81476149
   5.26959388  6.28300614 13.30752897
   5.26237676  6.26879833  6.91635809
   5.26169790  6.26793140  2.72468490
   2.70316423  7.74373891  1.21080491
   2.70493125  7.74482251  4.63722132
   2.73425713  7.75577436 11.74021225
   2.70764459  7.74958302  7.53195411
   1.73588504  0.36084663  3.73720496
   3.68397506  0.36818405 10.68315351
  -0.64916009  1.73808616  3.73581205
  -1.63022873  3.41052749 10.69342321
   1.90753073  3.41339120  3.73278391
   0.92540296  1.75410519 10.69513263
  -0.85216579  1.83139185  8.36923937
   1.09436738  1.78463353  1.44433726
   1.92362053  3.21102608  8.38815646
   3.55133612  0.47010850  1.44520825
   1.91720773  0.49449519  8.37462396
  -1.65341453  3.25601344  1.44376817
   1.77027964  3.36319265 13.01401363
  -1.42011551  3.31883411  6.06363618
   1.87148048  0.27821126 12.99251547
   0.92460899  1.95676555  6.07091272
  -0.61054037  1.89957773 13.00513475
   3.49160933  0.23911913  6.06753011
   6.85255527  0.36032103  3.73414044
   8.79512476  0.36001610 10.70476077
   4.46734262  1.73951262  3.73416615
   3.49402156  3.44311164 10.70503390
   7.02209699  3.41381145  3.73365996
   6.04587048  1.73102139 10.70445570
   4.26387479  1.84275447  8.37568884
   6.21044296  1.78538115  1.44279070
   7.03897563  3.18939243  8.37227824
   8.66765667  0.46944580  1.44550265
   7.02172989  0.47363580  8.39058318
   3.46266610  3.25637324  1.44334658
   6.86965382  3.35466632 13.00675581
   3.69611802  3.32071476  6.06756284
   6.98417567  0.27339610 12.99081941
   6.03981427  1.95402153  6.06784609
   4.48965668  1.90955766 13.00873175
   8.60648913  0.23650780  6.06958045
  -0.82060276  4.78942339  3.73334936
   1.08189055  4.83011206 10.75023488
  -3.20641165  6.17023410  3.73237693
  -4.16294665  7.86129836 10.70295095
  -0.65169632  7.84413941  3.73293604
  -1.55674288  6.18427231 10.75457455
  -3.38838086  6.26182610  8.38917593
  -1.46241799  6.21518452  1.44123997
  -0.62607068  7.63337145  8.36183879
   0.99453715  4.90006793  1.44315385
  -0.64931084  4.91372864  8.36478925
  -4.21098560  7.68732972  1.44473148
  -0.80911735  7.81526641 12.98471744
  -3.97522244  7.75058596  6.06997362
  -0.69399625  4.67518561 12.97006484
  -1.63559208  6.38546995  6.06077641
  -3.18138604  6.33494724 12.99678897
   0.93532510  4.66586097  6.06028466
   4.29450060  4.78981250  3.73508855
   6.24528361  4.79059653 10.70746454
   1.91003871  6.17047430  3.73188181
   0.92770383  7.78290773 10.76164756
   4.46636925  7.84396684  3.73609315
   3.51466953  6.17462950 10.69538844
   1.71883170  6.25680118  8.36179201
   3.65361651  6.21564347  1.44289244
   4.49111199  7.62813157  8.37223848
   6.10969156  4.90013573  1.44464225
   4.48610257  4.92052934  8.37096331
   0.90428991  7.68703691  1.44249274
   4.33759656  7.80972657 13.00562291
   1.13984445  7.75211305  6.05953761
   4.43413665  4.69689410 13.00926262
   3.48408890  6.38525849  6.06554300
   1.96644212  6.32975766 12.97960011
   6.05128633  4.66856059  6.06665337
   2.10292268  2.58984488 15.51992718
   3.10787360  2.56838770 15.96905143
   1.76335134  3.21426803 14.22955422
   1.50247645  1.74437618 15.88189404
   1.62558796  3.50939428 15.89670328



--------------------------------------------------------------------------------------------------------


 k-point  1 :   0.0000 0.0000 0.0000  plane waves:   91045
 k-point  2 :   0.3333 0.0000 0.0000  plane waves:   91327
 k-point  3 :   0.0000 0.3333 0.0000  plane waves:   91327
 k-point  4 :   0.3333 0.3333 0.0000  plane waves:   91329
 k-point  5 :  -0.3333 0.3333 0.0000  plane waves:   91327

 maximum and minimum number of plane-waves per node :     91329    91045

 maximum number of plane-waves:     91329
 maximum index in each direction: 
   IXMAX=   19   IYMAX=   19   IZMAX=   69
   IXMIN=  -19   IYMIN=  -19   IZMIN=  -69

 WARNING: aliasing errors must be expected set NGX to  78 to avoid them
 WARNING: aliasing errors must be expected set NGY to  78 to avoid them
 WARNING: aliasing errors must be expected set NGZ to 278 to avoid them
 aliasing errors are usually negligible using standard VASP settings
 and one can safely disregard these warnings

 serial   3D FFT for wavefunctions
 parallel 3D FFT for charge:
    minimum data exchange during FFTs selected (reduces bandwidth)


 total amount of memory used by VASP on root node   229210. kBytes
========================================================================

   base      :      30000. kBytes
   nonlr-proj:      30080. kBytes
   fftplans  :      10510. kBytes
   grid      :      65452. kBytes
   one-center:       3888. kBytes
   wavefun   :      89280. kBytes

     INWAV:  cpu time    0.00: real time    0.00
 Broyden mixing: mesh for mixing (old mesh)
   NGX = 39   NGY = 39   NGZ =139
  (NGX  =120   NGY  =120   NGZ  =420)
  gives a total of 211419 points

 initial charge density was supplied:
 charge density of overlapping atoms calculated
 number of electron    1112.0000000 magnetization      -0.0000000
 keeping initial charge density in first step


--------------------------------------------------------------------------------------------------------


 Maximum index for non-local projection operator         2513
 Maximum index for augmentation-charges         1358 (set IRDMAX)


--------------------------------------------------------------------------------------------------------


 First call to EWALD:  gamma=   0.118
 Maximum number of real-space cells 4x 4x 1
 Maximum number of reciprocal cells 2x 2x 6

 FEWALD executed in parallel
    FEWALD:  cpu time    0.01: real time    0.01


----------------------------------------- Iteration    1(   1)  ---------------------------------------


    POTLOK:  cpu time    0.24: real time    0.24
    SETDIJ:  cpu time    0.82: real time    0.82
     EDDAV:  cpu time  103.64: real time  103.70
       DOS:  cpu time    0.01: real time    0.01
    --------------------------------------------
      LOOP:  cpu time  104.72: real time  104.81

 eigenvalue-minimisations  : 16800
 total energy-change (2. order) : 0.1278394E+05  (-0.6399984E+05)
 number of electron    1112.0000000 magnetization      -0.0000000
 augmentation part     1112.0000000 magnetization      -0.0000000

 DIPCOR: dipole corrections for dipol
 direction  3 min pos   315,
 dipolmoment           0.000000      0.000000      0.000806 electrons x Angstroem
 Tr[quadrupol]    -19354.801754

 energy correction for charged system         0.000000 eV
 dipol+quadrupol energy correction           -0.000000 eV
 added-field ion interaction          0.094808 eV  (added to PSCEN)


 Free energy of the ion-electron system (eV)
  ---------------------------------------------------
  alpha Z        PSCENC =      1965.77719559
  Ewald energy   TEWEN  =   1442226.30545039
  -Hartree energ DENC   =  -1573743.82969625
  -exchange      EXHF   =         0.00000000
  -V(xc)+E(xc)   XCENC  =      5460.50619811
  PAW double counting   =    121055.99823787  -125065.16812732
  entropy T*S    EENTRO =        -0.25210123
  eigenvalues    EBANDS =     -8398.32208544
  atomic energy  EATOM  =    149282.92348897
  ---------------------------------------------------
  free energy    TOTEN  =     12783.93856069 eV

  energy without entropy =    12784.19066191  energy(sigma->0) =    12784.06461130


--------------------------------------------------------------------------------------------------------




----------------------------------------- Iteration    1(   2)  ---------------------------------------


     EDDAV:  cpu time   94.80: real time   94.86
       DOS:  cpu time    0.01: real time    0.01
    --------------------------------------------
      LOOP:  cpu time   94.81: real time   94.88

 eigenvalue-minimisations  : 15600
 total energy-change (2. order) :-0.1208972E+05  (-0.1129632E+05)
 number of electron    1112.0000000 magnetization      -0.0000000
 augmentation part     1112.0000000 magnetization      -0.0000000

 DIPCOR: dipole corrections for dipol
 direction  3 min pos   315,
 dipolmoment           0.000000      0.000000      0.000806 electrons x Angstroem
 Tr[quadrupol]    -19354.801754

 energy correction for charged system         0.000000 eV
 dipol+quadrupol energy correction           -0.000000 eV
 added-field ion interaction          0.094808 eV  (added to PSCEN)


 Free energy of the ion-electron system (eV)
  ---------------------------------------------------
  alpha Z        PSCENC =      1965.77719559
  Ewald energy   TEWEN  =   1442226.30545039
  -Hartree energ DENC   =  -1573743.82969625
  -exchange      EXHF   =         0.00000000
  -V(xc)+E(xc)   XCENC  =      5460.50619811
  PAW double counting   =    121055.99823787  -125065.16812732
  entropy T*S    EENTRO =        -0.00070434
  eigenvalues    EBANDS =    -20488.29083768
  atomic energy  EATOM  =    149282.92348897
  ---------------------------------------------------
  free energy    TOTEN  =       694.22120533 eV

  energy without entropy =      694.22190968  energy(sigma->0) =      694.22155750


--------------------------------------------------------------------------------------------------------




----------------------------------------- Iteration    1(   3)  ---------------------------------------


     EDDAV:  cpu time  127.99: real time  128.06
       DOS:  cpu time    0.01: real time    0.01
    --------------------------------------------
      LOOP:  cpu time  128.00: real time  128.09

 eigenvalue-minimisations  : 18600
 total energy-change (2. order) :-0.1703881E+04  (-0.1674274E+04)
 number of electron    1112.0000000 magnetization      -0.0000000
 augmentation part     1112.0000000 magnetization      -0.0000000

 DIPCOR: dipole corrections for dipol
 direction  3 min pos   315,
 dipolmoment           0.000000      0.000000      0.000806 electrons x Angstroem
 Tr[quadrupol]    -19354.801754

 energy correction for charged system         0.000000 eV
 dipol+quadrupol energy correction           -0.000000 eV
 added-field ion interaction          0.094808 eV  (added to PSCEN)


 Free energy of the ion-electron system (eV)
  ---------------------------------------------------
  alpha Z        PSCENC =      1965.77719559
  Ewald energy   TEWEN  =   1442226.30545039
  -Hartree energ DENC   =  -1573743.82969625
  -exchange      EXHF   =         0.00000000
  -V(xc)+E(xc)   XCENC  =      5460.50619811
  PAW double counting   =    121055.99823787  -125065.16812732
  entropy T*S    EENTRO =        -0.00000000
  eigenvalues    EBANDS =    -22192.17216799
  atomic energy  EATOM  =    149282.92348897
  ---------------------------------------------------
  free energy    TOTEN  =     -1009.65942064 eV

  energy without entropy =    -1009.65942064  energy(sigma->0) =    -1009.65942064


--------------------------------------------------------------------------------------------------------




----------------------------------------- Iteration    1(   4)  ---------------------------------------


     EDDAV:  cpu time  110.78: real time  110.85
       DOS:  cpu time    0.01: real time    0.01
    --------------------------------------------
      LOOP:  cpu time  110.79: real time  110.87

 eigenvalue-minimisations  : 16800
 total energy-change (2. order) :-0.5493977E+02  (-0.5486003E+02)
 number of electron    1112.0000000 magnetization      -0.0000000
 augmentation part     1112.0000000 magnetization      -0.0000000

 DIPCOR: dipole corrections for dipol
 direction  3 min pos   315,
 dipolmoment           0.000000      0.000000      0.000806 electrons x Angstroem
 Tr[quadrupol]    -19354.801754

 energy correction for charged system         0.000000 eV
 dipol+quadrupol energy correction           -0.000000 eV
 added-field ion interaction          0.094808 eV  (added to PSCEN)


 Free energy of the ion-electron system (eV)
  ---------------------------------------------------
  alpha Z        PSCENC =      1965.77719559
  Ewald energy   TEWEN  =   1442226.30545039
  -Hartree energ DENC   =  -1573743.82969625
  -exchange      EXHF   =         0.00000000
  -V(xc)+E(xc)   XCENC  =      5460.50619811
  PAW double counting   =    121055.99823787  -125065.16812732
  entropy T*S    EENTRO =        -0.00000000
  eigenvalues    EBANDS =    -22247.11194228
  atomic energy  EATOM  =    149282.92348897
  ---------------------------------------------------
  free energy    TOTEN  =     -1064.59919493 eV

  energy without entropy =    -1064.59919493  energy(sigma->0) =    -1064.59919493


--------------------------------------------------------------------------------------------------------




----------------------------------------- Iteration    1(   5)  ---------------------------------------


     EDDAV:  cpu time  119.49: real time  119.56
       DOS:  cpu time    0.02: real time    0.02
    CHARGE:  cpu time    1.80: real time    1.81
    MIXING:  cpu time    0.00: real time    0.00
    --------------------------------------------
      LOOP:  cpu time  121.32: real time  121.44

 eigenvalue-minimisations  : 18240
 total energy-change (2. order) :-0.1177378E+01  (-0.1177289E+01)
 number of electron    1112.0000046 magnetization      -0.0000003
 augmentation part      431.4783248 magnetization      -0.9722345

 DIPCOR: dipole corrections for dipol
 direction  3 min pos   315,
 dipolmoment           0.000000      0.000000      0.000806 electrons x Angstroem
 Tr[quadrupol]    -19354.801754

 energy correction for charged system         0.000000 eV
 dipol+quadrupol energy correction           -0.000000 eV
 added-field ion interaction          0.094808 eV  (added to PSCEN)


 Broyden mixing:
  rms(total) = 0.16587E+02    rms(broyden)= 0.16586E+02
  rms(prec ) = 0.16796E+02
  weight for this iteration     100.00

 Free energy of the ion-electron system (eV)
  ---------------------------------------------------
  alpha Z        PSCENC =      1965.77719559
  Ewald energy   TEWEN  =   1442226.30545039
  -Hartree energ DENC   =  -1573743.82969625
  -exchange      EXHF   =         0.00000000
  -V(xc)+E(xc)   XCENC  =      5460.50619811
  PAW double counting   =    121055.99823787  -125065.16812732
  entropy T*S    EENTRO =        -0.00000000
  eigenvalues    EBANDS =    -22248.28931982
  atomic energy  EATOM  =    149282.92348897
  ---------------------------------------------------
  free energy    TOTEN  =     -1065.77657247 eV

  energy without entropy =    -1065.77657247  energy(sigma->0) =    -1065.77657247


--------------------------------------------------------------------------------------------------------




----------------------------------------- Iteration    1(   6)  ---------------------------------------


    POTLOK:  cpu time    0.17: real time    0.17
    SETDIJ:  cpu time    0.81: real time    0.81
    EDDIAG:  cpu time   12.32: real time   12.33
  RMM-DIIS:  cpu time   16.88: real time   16.89
    ORTHCH:  cpu time    5.82: real time    5.82
       DOS:  cpu time    0.00: real time    0.00
    CHARGE:  cpu time    1.70: real time    1.70
    MIXING:  cpu time    0.00: real time    0.00
    --------------------------------------------
      LOOP:  cpu time   37.70: real time   37.73

 eigenvalue-minimisations  : 15031
 total energy-change (2. order) :-0.7561902E+02  (-0.3344361E+01)
 number of electron    1112.0000047 magnetization      -0.0000003
 augmentation part      433.1112167 magnetization      -0.9177443

 DIPCOR: dipole corrections for dipol
 direction  3 min pos   304,
 dipolmoment           0.000000      0.000000      0.008561 electrons x Angstroem
 Tr[quadrupol]    -19355.085672

 energy correction for charged system         0.000000 eV
 dipol+quadrupol energy correction           -0.000002 eV
 added-field ion interaction          0.509706 eV  (added to PSCEN)


 Broyden mixing:
  rms(total) = 0.15937E+02    rms(broyden)= 0.15937E+02
  rms(prec ) = 0.16147E+02
  weight for this iteration     100.00

 eigenvalues of (default mixing * dielectric matrix)
  average eigenvalue GAMMA=   1.5733
  1.5733

 Free energy of the ion-electron system (eV)
  ---------------------------------------------------
  alpha Z        PSCENC =      1966.19209082
  Ewald energy   TEWEN  =   1442226.30545039
  -Hartree energ DENC   =  -1573696.18069772
  -exchange      EXHF   =         0.00000000
  -V(xc)+E(xc)   XCENC  =      5487.08050761
  PAW double counting   =    121090.55692214  -124973.91108317
  entropy T*S    EENTRO =        -0.00000000
  eigenvalues    EBANDS =    -22524.36227419
  atomic energy  EATOM  =    149282.92348897
  ---------------------------------------------------
  free energy    TOTEN  =     -1141.39559515 eV

  energy without entropy =    -1141.39559515  energy(sigma->0) =    -1141.39559515


--------------------------------------------------------------------------------------------------------




----------------------------------------- Iteration    1(   7)  ---------------------------------------


    POTLOK:  cpu time    0.17: real time    0.17
    SETDIJ:  cpu time    0.81: real time    0.81
    EDDIAG:  cpu time   12.40: real time   12.41
  RMM-DIIS:  cpu time   18.13: real time   18.15
    ORTHCH:  cpu time    5.67: real time    5.67
       DOS:  cpu time    0.00: real time    0.00
    CHARGE:  cpu time    1.69: real time    1.69
    MIXING:  cpu time    0.00: real time    0.00
    --------------------------------------------
      LOOP:  cpu time   38.89: real time   38.93

 eigenvalue-minimisations  : 16098
 total energy-change (2. order) : 0.1710256E+02  (-0.1302288E+01)
 number of electron    1112.0000047 magnetization      -0.0000002
 augmentation part      434.0378131 magnetization      -0.8569220

 DIPCOR: dipole corrections for dipol
 direction  3 min pos   299,
 dipolmoment           0.000000      0.000000      0.020541 electrons x Angstroem
 Tr[quadrupol]    -19355.199018

 energy correction for charged system         0.000000 eV
 dipol+quadrupol energy correction           -0.000011 eV
 added-field ion interaction          0.680189 eV  (added to PSCEN)


 Broyden mixing:
  rms(total) = 0.15769E+02    rms(broyden)= 0.15769E+02
  rms(prec ) = 0.15967E+02
  weight for this iteration     100.00

 eigenvalues of (default mixing * dielectric matrix)
  average eigenvalue GAMMA=   1.5781
  1.3696  1.7866

 Free energy of the ion-electron system (eV)
  ---------------------------------------------------
  alpha Z        PSCENC =      1966.36256470
  Ewald energy   TEWEN  =   1442226.30545039
  -Hartree energ DENC   =  -1573638.48726128
  -exchange      EXHF   =         0.00000000
  -V(xc)+E(xc)   XCENC  =      5500.66601943
  PAW double counting   =    121127.09607112  -124948.21749842
  entropy T*S    EENTRO =        -0.00000000
  eigenvalues    EBANDS =    -22640.94187249
  atomic energy  EATOM  =    149282.92348897
  ---------------------------------------------------
  free energy    TOTEN  =     -1124.29303760 eV

  energy without entropy =    -1124.29303760  energy(sigma->0) =    -1124.29303760


--------------------------------------------------------------------------------------------------------




----------------------------------------- Iteration    1(   8)  ---------------------------------------


    POTLOK:  cpu time    0.22: real time    0.22
    SETDIJ:  cpu time    0.82: real time    0.82
    EDDIAG:  cpu time   12.38: real time   12.39
  RMM-DIIS:  cpu time   19.47: real time   19.48
    ORTHCH:  cpu time    5.62: real time    5.62
       DOS:  cpu time    0.00: real time    0.00
    CHARGE:  cpu time    1.68: real time    1.68
    MIXING:  cpu time    0.00: real time    0.00
    --------------------------------------------
      LOOP:  cpu time   40.18: real time   40.22

 eigenvalue-minimisations  : 16964
 total energy-change (2. order) : 0.1760868E+03  (-0.1939111E+02)
 number of electron    1112.0000047 magnetization      -0.0000003
 augmentation part      437.6172552 magnetization      -0.6158582

 DIPCOR: dipole corrections for dipol
 direction  3 min pos   296,
 dipolmoment           0.000000      0.000000      0.106669 electrons x Angstroem
 Tr[quadrupol]    -19356.453405

 energy correction for charged system         0.000000 eV
 dipol+quadrupol energy correction           -0.000304 eV
 added-field ion interaction          1.841060 eV  (added to PSCEN)


 Broyden mixing:
  rms(total) = 0.14491E+02    rms(broyden)= 0.14491E+02
  rms(prec ) = 0.14596E+02
  weight for this iteration     100.00

 eigenvalues of (default mixing * dielectric matrix)
  average eigenvalue GAMMA=   2.5371
  5.0405  1.2854  1.2854

 Free energy of the ion-electron system (eV)
  ---------------------------------------------------
  alpha Z        PSCENC =      1967.52314340
  Ewald energy   TEWEN  =   1442226.30545039
  -Hartree energ DENC   =  -1573211.58674881
  -exchange      EXHF   =         0.00000000
  -V(xc)+E(xc)   XCENC  =      5490.62543456
  PAW double counting   =    122271.27529459  -126156.56704314
  entropy T*S    EENTRO =        -0.00000000
  eigenvalues    EBANDS =    -22818.70526780
  atomic energy  EATOM  =    149282.92348897
  ---------------------------------------------------
  free energy    TOTEN  =      -948.20624785 eV

  energy without entropy =     -948.20624785  energy(sigma->0) =     -948.20624785


--------------------------------------------------------------------------------------------------------




----------------------------------------- Iteration    1(   9)  ---------------------------------------


    POTLOK:  cpu time    0.16: real time    0.16
    SETDIJ:  cpu time    0.81: real time    0.81
    EDDIAG:  cpu time   12.47: real time   12.48
  RMM-DIIS:  cpu time   19.50: real time   19.51
    ORTHCH:  cpu time    5.66: real time    5.66
       DOS:  cpu time    0.00: real time    0.00
    CHARGE:  cpu time    1.68: real time    1.68
    MIXING:  cpu time    0.00: real time    0.00
    --------------------------------------------
      LOOP:  cpu time   40.29: real time   40.32

 eigenvalue-minimisations  : 16835
 total energy-change (2. order) : 0.9148245E+02  (-0.2204499E+02)
 number of electron    1112.0000048 magnetization      -0.0000004
 augmentation part      442.4353556 magnetization      -0.6999031

 DIPCOR: dipole corrections for dipol
 direction  3 min pos   295,
 dipolmoment           0.000000      0.000000      0.198212 electrons x Angstroem
 Tr[quadrupol]    -19358.023396

 energy correction for charged system         0.000000 eV
 dipol+quadrupol energy correction           -0.001048 eV
 added-field ion interaction          2.373563 eV  (added to PSCEN)


 Broyden mixing:
  rms(total) = 0.13886E+02    rms(broyden)= 0.13886E+02
  rms(prec ) = 0.13914E+02
  weight for this iteration     100.00

 eigenvalues of (default mixing * dielectric matrix)
  average eigenvalue GAMMA=   4.1073
 12.9564  1.3898  1.3194  0.7637

 Free energy of the ion-electron system (eV)
  ---------------------------------------------------
  alpha Z        PSCENC =      1968.05490245
  Ewald energy   TEWEN  =   1442226.30545039
  -Hartree energ DENC   =  -1572799.42516007
  -exchange      EXHF   =         0.00000000
  -V(xc)+E(xc)   XCENC  =      5498.49494132
  PAW double counting   =    123501.60054611  -127320.92957198
  entropy T*S    EENTRO =        -0.00000000
  eigenvalues    EBANDS =    -23213.74839698
  atomic energy  EATOM  =    149282.92348897
  ---------------------------------------------------
  free energy    TOTEN  =      -856.72379978 eV

  energy without entropy =     -856.72379978  energy(sigma->0) =     -856.72379978


--------------------------------------------------------------------------------------------------------




----------------------------------------- Iteration    1(  10)  ---------------------------------------


    POTLOK:  cpu time    0.16: real time    0.16
    SETDIJ:  cpu time    0.81: real time    0.81
    EDDIAG:  cpu time   12.09: real time   12.10
  RMM-DIIS:  cpu time   20.72: real time   20.73
    ORTHCH:  cpu time    5.48: real time    5.48
       DOS:  cpu time    0.00: real time    0.00
    CHARGE:  cpu time    1.69: real time    1.69
    MIXING:  cpu time    0.01: real time    0.00
    --------------------------------------------
      LOOP:  cpu time   40.96: real time   41.00

 eigenvalue-minimisations  : 17895
 total energy-change (2. order) : 0.5168185E+01  (-0.1013801E+01)
 number of electron    1112.0000048 magnetization      -0.0000004
 augmentation part      442.6954474 magnetization      -0.8364306

 DIPCOR: dipole corrections for dipol
 direction  3 min pos   294,
 dipolmoment           0.000000      0.000000      0.200121 electrons x Angstroem
 Tr[quadrupol]    -19358.418353

 energy correction for charged system         0.000000 eV
 dipol+quadrupol energy correction           -0.001068 eV
 added-field ion interaction          1.338845 eV  (added to PSCEN)


 Broyden mixing:
  rms(total) = 0.13646E+02    rms(broyden)= 0.13646E+02
  rms(prec ) = 0.13670E+02
  weight for this iteration     100.00

 eigenvalues of (default mixing * dielectric matrix)
  average eigenvalue GAMMA=   5.1145
 20.0348  1.6710  1.6710  0.9799  1.2157

 Free energy of the ion-electron system (eV)
  ---------------------------------------------------
  alpha Z        PSCENC =      1967.02016407
  Ewald energy   TEWEN  =   1442226.30545039
  -Hartree energ DENC   =  -1572794.40246516
  -exchange      EXHF   =         0.00000000
  -V(xc)+E(xc)   XCENC  =      5492.58488374
  PAW double counting   =    123783.11157948  -127612.10932790
  entropy T*S    EENTRO =        -0.00000000
  eigenvalues    EBANDS =    -23196.98938851
  atomic energy  EATOM  =    149282.92348897
  ---------------------------------------------------
  free energy    TOTEN  =      -851.55561492 eV

  energy without entropy =     -851.55561492  energy(sigma->0) =     -851.55561492


--------------------------------------------------------------------------------------------------------




----------------------------------------- Iteration    1(  11)  ---------------------------------------


    POTLOK:  cpu time    0.16: real time    0.16
    SETDIJ:  cpu time    0.81: real time    0.81
    EDDIAG:  cpu time   12.07: real time   12.08
  RMM-DIIS:  cpu time   19.22: real time   19.23
    ORTHCH:  cpu time    5.65: real time    5.65
       DOS:  cpu time    0.00: real time    0.00
    CHARGE:  cpu time    1.70: real time    1.70
    MIXING:  cpu time    0.01: real time    0.00
    --------------------------------------------
      LOOP:  cpu time   39.62: real time   39.66

 eigenvalue-minimisations  : 16927
 total energy-change (2. order) :-0.2011646E+02  (-0.1357320E+02)
 number of electron    1112.0000047 magnetization      -0.0000004
 augmentation part      440.2454891 magnetization      -1.0525997

 DIPCOR: dipole corrections for dipol
 direction  3 min pos   294,
 dipolmoment           0.000000      0.000000      0.142961 electrons x Angstroem
 Tr[quadrupol]    -19360.440132

 energy correction for charged system         0.000000 eV
 dipol+quadrupol energy correction           -0.000545 eV
 added-field ion interaction          0.956433 eV  (added to PSCEN)


 Broyden mixing:
  rms(total) = 0.12805E+02    rms(broyden)= 0.12805E+02
  rms(prec ) = 0.12859E+02
  weight for this iteration     100.00

 eigenvalues of (default mixing * dielectric matrix)
  average eigenvalue GAMMA=   4.6574
 20.5518  2.6623  1.4416  1.0940  1.0973  1.0973

 Free energy of the ion-electron system (eV)
  ---------------------------------------------------
  alpha Z        PSCENC =      1966.63827549
  Ewald energy   TEWEN  =   1442226.30545039
  -Hartree energ DENC   =  -1573040.17429326
  -exchange      EXHF   =         0.00000000
  -V(xc)+E(xc)   XCENC  =      5483.48600701
  PAW double counting   =    125067.39176852  -128959.78203008
  entropy T*S    EENTRO =        -0.00000000
  eigenvalues    EBANDS =    -22898.46074626
  atomic energy  EATOM  =    149282.92348897
  ---------------------------------------------------
  free energy    TOTEN  =      -871.67207922 eV

  energy without entropy =     -871.67207922  energy(sigma->0) =     -871.67207922


--------------------------------------------------------------------------------------------------------




----------------------------------------- Iteration    1(  12)  ---------------------------------------


    POTLOK:  cpu time    0.16: real time    0.16
    SETDIJ:  cpu time    0.81: real time    0.81
    EDDIAG:  cpu time   12.20: real time   12.20
  RMM-DIIS:  cpu time   19.79: real time   19.80
    ORTHCH:  cpu time    5.73: real time    5.73
       DOS:  cpu time    0.00: real time    0.00
    CHARGE:  cpu time    1.69: real time    1.69
    MIXING:  cpu time    0.00: real time    0.00
    --------------------------------------------
      LOOP:  cpu time   40.38: real time   40.42

 eigenvalue-minimisations  : 17113
 total energy-change (2. order) : 0.1187561E+03  (-0.2768457E+02)
 number of electron    1112.0000048 magnetization      -0.0000003
 augmentation part      451.6283619 magnetization      -1.8604081

 DIPCOR: dipole corrections for dipol
 direction  3 min pos   294,
 dipolmoment           0.000000      0.000000      0.184960 electrons x Angstroem
 Tr[quadrupol]    -19371.065860

 energy correction for charged system         0.000000 eV
 dipol+quadrupol energy correction           -0.000913 eV
 added-field ion interaction          1.237410 eV  (added to PSCEN)


 Broyden mixing:
  rms(total) = 0.89288E+01    rms(broyden)= 0.89284E+01
  rms(prec ) = 0.89357E+01
  weight for this iteration     100.00

 eigenvalues of (default mixing * dielectric matrix)
  average eigenvalue GAMMA=   6.2492
 18.8780 18.8780  1.5509  1.5509  1.0830  0.9017  0.9017

 Free energy of the ion-electron system (eV)
  ---------------------------------------------------
  alpha Z        PSCENC =      1966.91888450
  Ewald energy   TEWEN  =   1442226.30545039
  -Hartree energ DENC   =  -1572740.53774662
  -exchange      EXHF   =         0.00000000
  -V(xc)+E(xc)   XCENC  =      5526.89669864
  PAW double counting   =    133522.78134245  -137509.25212287
  entropy T*S    EENTRO =        -0.00298767
  eigenvalues    EBANDS =    -23028.94894060
  atomic energy  EATOM  =    149282.92348897
  ---------------------------------------------------
  free energy    TOTEN  =      -752.91593281 eV

  energy without entropy =     -752.91294515  energy(sigma->0) =     -752.91443898


--------------------------------------------------------------------------------------------------------




----------------------------------------- Iteration    1(  13)  ---------------------------------------


    POTLOK:  cpu time    0.18: real time    0.18
    SETDIJ:  cpu time    0.81: real time    0.81
    EDDIAG:  cpu time   11.99: real time   12.00
  RMM-DIIS:  cpu time   20.57: real time   20.58
    ORTHCH:  cpu time    5.69: real time    5.70
       DOS:  cpu time    0.00: real time    0.00
    CHARGE:  cpu time    1.70: real time    1.70
    MIXING:  cpu time    0.00: real time    0.01
    --------------------------------------------
      LOOP:  cpu time   40.95: real time   40.99

 eigenvalue-minimisations  : 17624
 total energy-change (2. order) :-0.2784787E+02  (-0.3360217E+01)
 number of electron    1112.0000048 magnetization      -0.0000003
[...]
   -.845E+02 0.536E+02 0.362E+04   0.932E+02 -.596E+02 -.363E+04   -.873E+01 0.597E+01 0.103E+02   0.111E-01 -.852E-02 0.214E-01
   0.267E+02 -.434E+02 -.659E+03   -.264E+02 0.430E+02 0.659E+03   -.297E+00 0.326E+00 0.148E+00   0.224E-02 0.939E-03 0.760E-02
   -.479E+01 -.996E+02 0.362E+04   0.562E+01 0.110E+03 -.363E+04   -.833E+00 -.105E+02 0.103E+02   0.127E-02 0.138E-01 0.211E-01
   0.291E+02 0.451E+02 -.669E+03   -.294E+02 -.448E+02 0.668E+03   0.305E+00 -.228E+00 0.445E+00   -.919E-03 -.110E-02 0.708E-02
   0.886E+02 0.466E+02 0.362E+04   -.981E+02 -.511E+02 -.363E+04   0.952E+01 0.457E+01 0.103E+02   -.129E-01 -.543E-02 0.213E-01
   0.803E+02 -.543E+02 -.357E+04   -.891E+02 0.598E+02 0.358E+04   0.881E+01 -.550E+01 -.965E+01   -.415E-02 -.291E-02 -.189E-01
   0.532E+02 0.118E+01 0.710E+03   -.531E+02 -.115E+01 -.710E+03   -.161E+00 -.268E-01 -.290E+00   -.129E-03 0.873E-03 -.652E-02
   0.601E+01 0.107E+03 -.357E+04   -.722E+01 -.117E+03 0.358E+04   0.119E+01 0.106E+02 -.926E+01   0.879E-02 -.647E-02 -.172E-01
   -.259E+02 0.460E+02 0.710E+03   0.257E+02 -.459E+02 -.709E+03   0.209E+00 -.109E+00 -.292E+00   -.647E-05 -.764E-03 -.642E-02
   -.947E+02 -.525E+02 -.351E+04   0.102E+03 0.579E+02 0.352E+04   -.727E+01 -.543E+01 -.811E+01   0.190E-01 0.183E-02 -.343E-01
   -.260E+02 -.447E+02 0.711E+03   0.260E+02 0.445E+02 -.710E+03   -.247E-01 0.273E+00 -.178E+00   -.342E-03 -.775E-03 -.519E-02
   -.606E+02 -.292E+02 0.208E+04   0.619E+02 0.308E+02 -.208E+04   -.126E+01 -.164E+01 -.786E+00   0.466E-02 0.334E-02 0.695E-02
   0.265E+02 0.615E+02 -.203E+04   -.267E+02 -.636E+02 0.203E+04   0.223E+00 0.213E+01 0.163E+01   -.767E-02 0.363E-02 -.101E-01
   0.562E+02 -.381E+02 0.208E+04   -.582E+02 0.383E+02 -.208E+04   0.200E+01 -.254E+00 -.812E+00   -.409E-02 0.208E-02 0.653E-02
   -.567E+02 0.442E+02 -.203E+04   0.589E+02 -.445E+02 0.203E+04   -.217E+01 0.306E+00 0.739E+00   0.306E-02 -.187E-02 -.434E-03
   0.499E+01 0.669E+02 0.208E+04   -.418E+01 -.688E+02 -.208E+04   -.810E+00 0.190E+01 -.773E+00   0.808E-03 -.563E-02 0.686E-02
   0.442E+02 -.569E+02 -.204E+04   -.463E+02 0.585E+02 0.203E+04   0.205E+01 -.163E+01 0.146E+01   0.451E-02 0.621E-02 -.399E-02
   -.523E+02 0.240E+01 -.667E+03   0.521E+02 -.273E+01 0.667E+03   0.115E+00 0.333E+00 0.475E+00   0.141E-02 0.462E-03 0.776E-02
   -.842E+02 0.537E+02 0.362E+04   0.929E+02 -.596E+02 -.363E+04   -.872E+01 0.597E+01 0.104E+02   0.115E-01 -.829E-02 0.216E-01
   0.254E+02 -.560E+02 -.640E+03   -.251E+02 0.566E+02 0.639E+03   -.315E+00 -.616E+00 0.106E+01   0.842E-03 -.363E-03 0.775E-02
   -.442E+01 -.994E+02 0.362E+04   0.523E+01 0.110E+03 -.363E+04   -.809E+00 -.105E+02 0.103E+02   0.154E-02 0.141E-01 0.217E-01
   0.364E+02 0.496E+02 -.642E+03   -.371E+02 -.496E+02 0.641E+03   0.708E+00 0.210E-01 0.103E+01   0.386E-03 0.224E-02 0.741E-02
   0.887E+02 0.457E+02 0.362E+04   -.982E+02 -.502E+02 -.363E+04   0.952E+01 0.452E+01 0.103E+02   -.126E-01 -.570E-02 0.210E-01
   0.650E+02 -.209E+02 -.367E+04   -.726E+02 0.249E+02 0.368E+04   0.760E+01 -.402E+01 -.166E+02   -.396E-02 -.125E-01 -.150E-01
   0.516E+02 0.590E-01 0.710E+03   -.514E+02 0.929E-01 -.709E+03   -.246E+00 -.151E+00 -.240E+00   0.264E-03 0.287E-04 -.509E-02
   0.493E+01 0.701E+02 -.366E+04   -.468E+01 -.786E+02 0.367E+04   -.247E+00 0.851E+01 -.162E+02   -.149E-03 0.560E-02 -.161E-01
   -.190E+02 0.441E+02 0.713E+03   0.184E+02 -.439E+02 -.712E+03   0.662E+00 -.221E+00 -.478E+00   0.270E-02 -.280E-03 -.405E-02
   -.952E+02 -.417E+02 -.357E+04   0.105E+03 0.465E+02 0.358E+04   -.981E+01 -.489E+01 -.918E+01   0.202E-02 0.766E-02 -.169E-01
   -.285E+02 -.397E+02 0.714E+03   0.286E+02 0.391E+02 -.714E+03   -.136E+00 0.606E+00 -.389E+00   -.113E-02 0.298E-02 -.439E-02
   -.616E+02 -.299E+02 0.208E+04   0.629E+02 0.315E+02 -.208E+04   -.128E+01 -.167E+01 -.699E+00   0.416E-02 0.269E-02 0.672E-02
   0.675E+02 0.300E+02 -.204E+04   -.693E+02 -.320E+02 0.204E+04   0.178E+01 0.195E+01 0.324E+00   -.660E-02 0.257E-03 -.330E-02
   0.555E+02 -.377E+02 0.208E+04   -.575E+02 0.380E+02 -.208E+04   0.204E+01 -.243E+00 -.796E+00   -.521E-02 0.236E-02 0.702E-02
   -.698E+02 -.110E+02 -.204E+04   0.719E+02 0.121E+02 0.204E+04   -.211E+01 -.118E+01 0.149E+01   0.233E-02 -.717E-02 -.451E-02
   0.387E+01 0.674E+02 0.208E+04   -.300E+01 -.693E+02 -.208E+04   -.866E+00 0.189E+01 -.816E+00   -.232E-03 -.565E-02 0.657E-02
   -.134E+02 -.758E+02 -.202E+04   0.124E+02 0.784E+02 0.202E+04   0.103E+01 -.262E+01 0.832E+00   0.122E-02 0.854E-02 -.482E-02
   -.605E+02 0.393E+01 -.641E+03   0.608E+02 -.442E+01 0.640E+03   -.270E+00 0.488E+00 0.105E+01   -.192E-02 -.702E-03 0.721E-02
   -.848E+02 0.535E+02 0.362E+04   0.935E+02 -.594E+02 -.363E+04   -.873E+01 0.596E+01 0.103E+02   0.109E-01 -.847E-02 0.213E-01
   0.238E+02 -.440E+02 -.660E+03   -.235E+02 0.438E+02 0.660E+03   -.323E+00 0.206E+00 0.109E+00   -.514E-03 -.113E-02 0.779E-02
   -.412E+01 -.997E+02 0.362E+04   0.492E+01 0.110E+03 -.363E+04   -.798E+00 -.105E+02 0.103E+02   0.171E-02 0.138E-01 0.213E-01
   0.210E+02 0.437E+02 -.660E+03   -.206E+02 -.433E+02 0.660E+03   -.380E+00 -.447E+00 0.379E-01   -.236E-02 0.135E-02 0.799E-02
   0.885E+02 0.458E+02 0.362E+04   -.980E+02 -.503E+02 -.363E+04   0.952E+01 0.454E+01 0.104E+02   -.130E-01 -.568E-02 0.217E-01
   0.860E+02 -.514E+02 -.357E+04   -.942E+02 0.576E+02 0.358E+04   0.815E+01 -.611E+01 -.969E+01   -.420E-02 -.101E-03 -.227E-01
   0.479E+02 -.506E+01 0.714E+03   -.474E+02 0.548E+01 -.713E+03   -.516E+00 -.418E+00 -.446E+00   -.129E-02 -.216E-02 -.407E-02
   -.122E+02 0.868E+02 -.356E+04   0.119E+02 -.972E+02 0.357E+04   0.320E+00 0.104E+02 -.986E+01   0.181E-01 0.550E-02 -.227E-01
   -.258E+02 0.439E+02 0.712E+03   0.256E+02 -.437E+02 -.711E+03   0.298E+00 -.220E+00 -.354E+00   -.135E-02 0.947E-04 -.500E-02
   -.644E+02 -.575E+02 -.367E+04   0.716E+02 0.620E+02 0.368E+04   -.728E+01 -.447E+01 -.165E+02   -.484E-02 0.171E-01 -.169E-01
   -.265E+02 -.459E+02 0.711E+03   0.265E+02 0.457E+02 -.710E+03   0.294E-01 0.219E+00 -.279E+00   0.704E-03 0.593E-04 -.638E-02
   0.253E+02 -.311E+02 -.248E+04   -.252E+02 0.307E+02 0.248E+04   -.299E-01 0.492E+00 0.316E+01   -.560E-02 0.491E-02 0.133E-01
   -.493E+02 -.413E+01 -.616E+03   0.541E+02 0.407E+01 0.618E+03   -.489E+01 0.559E-01 -.226E+01   0.121E-01 0.384E-03 0.644E-02
   0.284E+02 -.367E+02 -.661E+03   -.290E+02 0.374E+02 0.662E+03   0.655E+00 -.720E+00 -.135E+01   -.474E-02 0.695E-02 -.104E-01
   0.351E+02 0.397E+02 -.614E+03   -.381E+02 -.439E+02 0.616E+03   0.301E+01 0.417E+01 -.182E+01   -.828E-02 -.996E-02 0.508E-02
   0.260E+02 -.487E+02 -.609E+03   -.283E+02 0.531E+02 0.611E+03   0.231E+01 -.443E+01 -.191E+01   -.628E-02 0.113E-01 0.468E-02
 -----------------------------------------------------------------------------------------------
   -.528E+00 0.263E+01 0.101E+02   -.721E-12 0.190E-11 -.142E-10   0.562E+00 -.260E+01 -.103E+02   0.157E-01 -.186E-01 0.334E-01


 POSITION                                       TOTAL-FORCE (eV/Angst)
 -----------------------------------------------------------------------------------
      0.14710      0.36134      5.19701         0.000001     -0.000075      0.000256
      0.14677      0.36639      9.24812         0.000082     -0.000005      0.000058
      0.14539      0.36043      2.36224        -0.000074      0.000040      0.001263
      0.17286      0.37760     12.08319        -0.000960     -0.000466     -0.001423
      2.69593      1.85270      9.83229        -0.000081     -0.000285      0.000681
      2.74905      1.77831     13.56849         0.001420     -0.002545     -0.004537
      2.70456      1.83810      6.92293         0.000024     -0.000032     -0.000356
      2.70326      1.83738      2.72501        -0.000352      0.000171      0.001575
      0.14527      3.31333      1.21132         0.000109     -0.000096      0.001610
      0.14667      3.31281      4.63704        -0.000047      0.000064     -0.000571
      0.11375      3.30307     11.70837        -0.001309     -0.000058     -0.002174
      0.14849      3.31285      7.53058        -0.000150      0.000032      0.000720
      5.25989      0.36342      5.19172        -0.000021     -0.000012      0.000240
      5.23764      0.37716      9.26114        -0.000190     -0.000234      0.000052
      5.26151      0.36064      2.35951        -0.000122      0.000112      0.001371
      5.25095      0.39058     12.10820         0.000345     -0.000958     -0.001003
      7.81259      1.82059      9.80945         0.000123     -0.000147      0.000818
      7.82931      1.84220     13.29907         0.000131     -0.000050     -0.001753
      7.82068      1.83891      6.91551        -0.000184      0.000267     -0.000266
      7.81899      1.83709      2.72460        -0.000033     -0.000052      0.001928
      5.26103      3.31376      1.20939        -0.000141      0.000043      0.001444
      5.26172      3.31401      4.63770         0.000041      0.000075     -0.000594
      5.25525      3.30805     11.73172         0.000557      0.000629     -0.001843
      5.26299      3.31519      7.52462        -0.000161     -0.000115      0.000666
     -2.41275      4.78834      5.19071        -0.000034     -0.000054      0.000274
     -2.41590      4.76841      9.26228         0.000087     -0.000021     -0.000054
     -2.41191      4.79138      2.35904        -0.000027     -0.000098      0.001311
     -2.42236      4.78964     12.10922         0.000089      0.000276     -0.000372
      0.14805      6.27004      9.72578         0.000032     -0.000045      0.000842
      0.15305      6.28262     12.64717        -0.000603     -0.000521     -0.000962
      0.14619      6.26883      6.88233         0.000009     -0.000079     -0.000456
      0.14585      6.26771      2.72265        -0.000010     -0.000018      0.001905
     -2.41248      7.74388      1.21130        -0.000783      0.000210      0.001827
     -2.41246      7.74504      4.63814         0.000021     -0.000069     -0.000531
     -2.41121      7.78712     11.73780         0.000346     -0.000635     -0.001743
     -2.41409      7.74850      7.53307         0.000015     -0.000010      0.000742
      2.70815      4.79064      5.19115         0.000050      0.000106      0.000207
      2.73032      4.80085      9.24899        -0.000135      0.000179      0.000112
      2.70350      4.79101      2.35892        -0.000039      0.000091      0.001212
      2.74405      4.81463     12.07906         0.000715      0.001625     -0.001525
      5.28409      6.27892      9.81476        -0.000077      0.000207      0.000942
      5.26959      6.28301     13.30753        -0.000228      0.000327     -0.001673
      5.26238      6.26880      6.91636        -0.000065     -0.000033     -0.000474
      5.26170      6.26793      2.72468        -0.000073      0.000055      0.001888
      2.70316      7.74374      1.21080        -0.000163      0.000117      0.001417
      2.70493      7.74482      4.63722        -0.000053     -0.000025     -0.000586
      2.73426      7.75577     11.74021         0.000098      0.000020     -0.001030
      2.70764      7.74958      7.53195        -0.000011     -0.000166      0.000646
      1.73589      0.36085      3.73720        -0.001177      0.000510      0.000488
      3.68398      0.36818     10.68315         0.000428     -0.000310      0.000635
     -0.64916      1.73809      3.73581        -0.000407      0.000244     -0.000333
     -1.63023      3.41053     10.69342         0.000042      0.000065      0.000222
      1.90753      3.41339      3.73278         0.000121      0.000078     -0.000276
      0.92540      1.75411     10.69513         0.000357      0.000160     -0.000004
     -0.85217      1.83139      8.36924        -0.000240     -0.000799      0.000122
      1.09437      1.78463      1.44434        -0.001248      0.000569     -0.001035
      1.92362      3.21103      8.38816        -0.000486     -0.000588     -0.000981
      3.55134      0.47011      1.44521         0.000204     -0.001519     -0.000762
      1.91721      0.49450      8.37462        -0.000196     -0.000360     -0.000368
     -1.65341      3.25601      1.44377         0.000383      0.001251     -0.001845
      1.77028      3.36319     13.01401         0.001265     -0.002100      0.006091
     -1.42012      3.31883      6.06364        -0.000279     -0.000173      0.000226
      1.87148      0.27821     12.99252         0.001392      0.003063      0.003027
      0.92461      1.95677      6.07091         0.000767     -0.000327     -0.000015
     -0.61054      1.89958     13.00513         0.000502      0.000686      0.002120
      3.49161      0.23912      6.06753         0.000028      0.000529      0.000385
      6.85256      0.36032      3.73414        -0.000168      0.000115     -0.000223
      8.79512      0.36002     10.70476         0.000129     -0.000063     -0.000097
      4.46734      1.73951      3.73417        -0.001093     -0.000101     -0.001237
      3.49402      3.44311     10.70503        -0.000005      0.000489      0.000938
      7.02210      3.41381      3.73366         0.000141      0.000552      0.000232
      6.04587      1.73102     10.70446        -0.000199     -0.000179      0.000346
      4.26387      1.84275      8.37569         0.000589      0.001943     -0.001455
      6.21044      1.78538      1.44279        -0.000968      0.000768     -0.001230
      7.03898      3.18939      8.37228         0.000589      0.000131      0.001053
      8.66766      0.46945      1.44550        -0.000319     -0.001146     -0.001262
      7.02173      0.47364      8.39058        -0.000396      0.000298      0.000320
      3.46267      3.25637      1.44335         0.000996      0.000440     -0.001280
      6.86965      3.35467     13.00676         0.000594     -0.001347      0.001178
      3.69612      3.32071      6.06756        -0.000192     -0.000034      0.000478
      6.98418      0.27340     12.99082        -0.001590     -0.000556      0.001700
      6.03981      1.95402      6.06785         0.000128     -0.000134      0.000397
      4.48966      1.90956     13.00873        -0.003100     -0.000373      0.002595
      8.60649      0.23651      6.06958         0.000080      0.000303      0.000319
     -0.82060      4.78942      3.73335        -0.000411      0.000059     -0.000347
      1.08189      4.83011     10.75023         0.000174     -0.000502      0.000757
     -3.20641      6.17023      3.73238        -0.000047     -0.000156     -0.000295
     -4.16295      7.86130     10.70295         0.000193     -0.000085      0.000230
     -0.65170      7.84414      3.73294         0.000058      0.000086     -0.000279
     -1.55674      6.18427     10.75457        -0.000510     -0.000060      0.000130
     -3.38838      6.26183      8.38918         0.000177      0.000073     -0.000288
     -1.46242      6.21518      1.44124        -0.000928      0.000655     -0.001305
     -0.62607      7.63337      8.36184         0.000458     -0.000562      0.000032
      0.99454      4.90007      1.44315        -0.000114     -0.001117     -0.001491
     -0.64931      4.91373      8.36479         0.000346      0.000297     -0.000278
     -4.21099      7.68733      1.44473         0.003170     -0.000578     -0.000687
     -0.80912      7.81527     12.98472         0.000222      0.001079      0.000749
     -3.97522      7.75059      6.06997         0.000244      0.000798     -0.000075
     -0.69400      4.67519     12.97006        -0.000253     -0.000376      0.000992
     -1.63559      6.38547      6.06078         0.000500      0.000164     -0.000234
     -3.18139      6.33495     12.99679         0.000951     -0.000654      0.000970
      0.93533      4.66586      6.06028        -0.001163      0.000438      0.000846
      4.29450      4.78981      3.73509        -0.001135     -0.000165     -0.000320
      6.24528      4.79060     10.70746         0.000185     -0.000275      0.000127
      1.91004      6.17047      3.73188        -0.000032     -0.000155     -0.000356
      0.92770      7.78291     10.76165        -0.001198      0.001094      0.000262
      4.46637      7.84397      3.73609         0.000157      0.000136     -0.000203
      3.51467      6.17463     10.69539         0.001070     -0.000692     -0.000430
      1.71883      6.25680      8.36179         0.000262      0.000185     -0.000279
      3.65362      6.21564      1.44289        -0.001139      0.000546     -0.001708
      4.49111      7.62813      8.37224         0.000207      0.000148     -0.000437
      6.10969      4.90014      1.44464        -0.001161     -0.000827     -0.003521
      4.48610      4.92053      8.37096         0.000072     -0.000390     -0.000295
      0.90429      7.68704      1.44249         0.000821      0.000545     -0.001027
      4.33760      7.80973     13.00562         0.002815      0.001104      0.001160
      1.13984      7.75211      6.05954         0.000285      0.000123      0.000764
      4.43414      4.69689     13.00926        -0.001738     -0.000180      0.001594
      3.48409      6.38526      6.06554         0.000243     -0.000147      0.000362
      1.96644      6.32976     12.97960         0.001796     -0.001544      0.000352
      6.05129      4.66856      6.06665         0.000422     -0.000126      0.000688
      2.10292      2.58984     15.51993        -0.000549      0.004402      0.001003
      3.10787      2.56839     15.96905        -0.006331      0.001996     -0.002355
      1.76335      3.21427     14.22955        -0.000174      0.000467     -0.002996
      1.50248      1.74438     15.88189         0.005023      0.003323     -0.001380
      1.62559      3.50939     15.89670         0.002189     -0.008956     -0.002983
 -----------------------------------------------------------------------------------
    total drift:                                0.049754      0.014845     -0.077756


--------------------------------------------------------------------------------------------------------



  FREE ENERGIE OF THE ION-ELECTRON SYSTEM (eV)
  ---------------------------------------------------
  free  energy   TOTEN  =      -830.06777737 eV

  energy  without entropy=     -830.06777737  energy(sigma->0) =     -830.06777737



--------------------------------------------------------------------------------------------------------


    POTLOK:  cpu time    1.00: real time    1.01


--------------------------------------------------------------------------------------------------------




--------------------------------------------------------------------------------------------------------


 writing wavefunctions
     LOOP+:  cpu time 2403.51: real time 2413.78
    4ORBIT:  cpu time    0.00: real time    0.00

 total amount of memory used by VASP on root node   229210. kBytes
========================================================================

   base      :      30000. kBytes
   nonlr-proj:      30080. kBytes
   fftplans  :      10510. kBytes
   grid      :      65452. kBytes
   one-center:       3888. kBytes
   wavefun   :      89280. kBytes

  
  
 General timing and accounting informations for this job:
 ========================================================
  
                  Total CPU time used (sec):     2464.958
                            User time (sec):     2267.038
                          System time (sec):      197.920
                         Elapsed time (sec):     2482.867
  
                   Maximum memory used (kb):      419500.
                   Average memory used (kb):           0.
  
                          Minor page faults:     23040836
                          Major page faults:            0
                 Voluntary context switches:         2276
