 vasp.5.3.3 18Dez12 (build Mar 06 2013 10:35:37) complex                        
  
 executed on             LinuxIFC date 2014.10.07  11:18:58
 running on   24 total cores
 distrk:  each k-point on   24 cores,    1 groups
 distr:  one band on NCORES_PER_BAND=   1 cores,   24 groups


--------------------------------------------------------------------------------------------------------


 INCAR:
 POTCAR:    PAW_PBE C 08Apr2002                   
 POTCAR:    PAW_PBE H 15Jun2001                   

 ----------------------------------------------------------------------------- 
|                                                                             |
|           W    W    AA    RRRRR   N    N  II  N    N   GGGG   !!!           |
|           W    W   A  A   R    R  NN   N  II  NN   N  G    G  !!!           |
|           W    W  A    A  R    R  N N  N  II  N N  N  G       !!!           |
|           W WW W  AAAAAA  RRRRR   N  N N  II  N  N N  G  GGG   !            |
|           WW  WW  A    A  R   R   N   NN  II  N   NN  G    G                |
|           W    W  A    A  R    R  N    N  II  N    N   GGGG   !!!           |
|                                                                             |
|      For optimal performance we recommend that you set                      |
|        NPAR = 4 - approx SQRT( number of cores)                             |
|      (number of cores/NPAR must be integer)                                 |
|      This setting will greatly improve the performance of VASP for DFT.     |
|      The default NPAR=number of cores might be grossly inefficient          |
|      on modern multi-core architectures or massively parallel machines.     |
|      Do your own testing.                                                   |
|      Unfortunately you need to use the default for hybrid, GW and RPA       |
|      calculations.                                                          |
|                                                                             |
 ----------------------------------------------------------------------------- 

 POTCAR:    PAW_PBE C 08Apr2002                   
   VRHFIN =C: s2p2                                                              
   LEXCH  = PE                                                                  
   EATOM  =   147.1560 eV,   10.8157 Ry                                         
                                                                                
   TITEL  = PAW_PBE C 08Apr2002                                                 
   LULTRA =        F    use ultrasoft PP ?                                      
   IUNSCR =        1    unscreen: 0-lin 1-nonlin 2-no                           
   RPACOR =    1.200    partial core radius                                     
   POMASS =   12.011; ZVAL   =    4.000    mass and valenz                      
   RCORE  =    1.500    outmost cutoff radius                                   
   RWIGS  =    1.630; RWIGS  =    0.863    wigner-seitz radius (au A)           
   ENMAX  =  400.000; ENMIN  =  300.000 eV                                      
   ICORE  =        2    local potential                                         
   LCOR   =        T    correct aug charges                                     
   LPAW   =        T    paw PP                                                  
   EAUG   =  644.873                                                            
   DEXC   =    0.000                                                            
   RMAX   =    1.529    core radius for proj-oper                               
   RAUG   =    1.300    factor for augmentation sphere                          
   RDEP   =    1.501    radius for radial grids                                 
   RDEPT  =    1.300    core radius for aug-charge                              
                                                                                
   Atomic configuration                                                         
    4 entries                                                                   
     n  l   j            E        occ.                                          
     1  0  0.50      -273.3789   2.0000                                         
     2  0  0.50       -13.7508   2.0000                                         
     2  1  0.50        -5.2854   2.0000                                         
     3  2  1.50        -5.4423   0.0000                                         
   Description                                                                  
     l       E           TYP  RCUT    TYP  RCUT                                 
     0    -13.7508458     23  1.200                                             
     0     -8.2022199     23  1.200                                             
     1     -5.2854383     23  1.500                                             
     1     34.0145650     23  1.500                                             
     2     -5.4423304      7  1.500                                             
  local pseudopotential read in
  partial core-charges read in
  partial kinetic energy density read in
  atomic valenz-charges read in
  non local Contribution for L=           0  read in
    real space projection operators read in
  non local Contribution for L=           0  read in
    real space projection operators read in
  non local Contribution for L=           1  read in
    real space projection operators read in
  non local Contribution for L=           1  read in
    real space projection operators read in
    PAW grid and wavefunctions read in
 
   number of l-projection  operators is LMAX  =           4
   number of lm-projection operators is LMMAX =           8
 
 POTCAR:    PAW_PBE H 15Jun2001                   
   VRHFIN =H: ultrasoft test                                                    
   LEXCH  = PE                                                                  
   EATOM  =    12.4884 eV,    0.9179 Ry                                         
                                                                                
   TITEL  = PAW_PBE H 15Jun2001                                                 
   LULTRA =        F    use ultrasoft PP ?                                      
   IUNSCR =        0    unscreen: 0-lin 1-nonlin 2-no                           
   RPACOR =    0.000    partial core radius                                     
   POMASS =    1.000; ZVAL   =    1.000    mass and valenz                      
   RCORE  =    1.100    outmost cutoff radius                                   
   RWIGS  =    0.700; RWIGS  =    0.370    wigner-seitz radius (au A)           
   ENMAX  =  250.000; ENMIN  =  200.000 eV                                      
   RCLOC  =    0.701    cutoff for local pot                                    
   LCOR   =        T    correct aug charges                                     
   LPAW   =        T    paw PP                                                  
   EAUG   =  400.000                                                            
   RMAX   =    1.123    core radius for proj-oper                               
   RAUG   =    1.200    factor for augmentation sphere                          
   RDEP   =    1.112    radius for radial grids                                 
   RDEPT  =    0.926    core radius for aug-charge                              
                                                                                
   Atomic configuration                                                         
    2 entries                                                                   
     n  l   j            E        occ.                                          
     1  0  0.50        -6.4927   1.0000                                         
     2  1  0.50        -3.4015   0.0000                                         
   Description                                                                  
     l       E           TYP  RCUT    TYP  RCUT                                 
     0     -6.4927494     23  1.100                                             
     0      6.8029130     23  1.100                                             
     1     -4.0817478     23  1.100                                             
  local pseudopotential read in
  atomic valenz-charges read in
  non local Contribution for L=           0  read in
    real space projection operators read in
  non local Contribution for L=           0  read in
    real space projection operators read in
  non local Contribution for L=           1  read in
    real space projection operators read in
    PAW grid and wavefunctions read in
 
   number of l-projection  operators is LMAX  =           3
   number of lm-projection operators is LMMAX =           5
 

 ----------------------------------------------------------------------------- 
|                                                                             |
|  ADVICE TO THIS USER RUNNING 'VASP/VAMP'   (HEAR YOUR MASTER'S VOICE ...):  |
|                                                                             |
|      You have a (more or less) 'small supercell' and for smaller cells      |
|      it is recommended  to use the reciprocal-space projection scheme!      |
|      The real space optimization is not  efficient for small cells and it   |
|      is also less accurate ...                                              |
|      Therefore set LREAL=.FALSE. in the  INCAR file                         |
|                                                                             |
 ----------------------------------------------------------------------------- 

 Optimization of the real space projectors (new method)

 maximal supplied QI-value         = 25.13
 optimisation between [QCUT,QGAM] = [ 11.56, 23.12] = [ 37.43,149.72] Ry 
 Optimized for a Real-space Cutoff    1.04 Angstroem

   l    n(q)    QCUT    max X(q) W(low)/X(q) W(high)/X(q)  e(spline) 
   0      7    11.561   115.676    0.20E-03    0.60E-03    0.21E-06
   0      7    11.561    87.132    0.20E-03    0.59E-03    0.21E-06
   1      7    11.561     4.429    0.23E-03    0.35E-03    0.15E-06
   1      7    11.561     2.733    0.18E-03    0.25E-03    0.12E-06
 Optimization of the real space projectors (new method)

 maximal supplied QI-value         = 34.20
 optimisation between [QCUT,QGAM] = [ 11.63, 23.26] = [ 37.87,151.49] Ry 
 Optimized for a Real-space Cutoff    1.21 Angstroem

   l    n(q)    QCUT    max X(q) W(low)/X(q) W(high)/X(q)  e(spline) 
   0      8    11.629    19.460    0.17E-03    0.34E-03    0.21E-06
   0      8    11.629    12.209    0.16E-03    0.33E-03    0.21E-06
   1      8    11.629     4.655    0.18E-03    0.16E-03    0.26E-06
  PAW_PBE C 08Apr2002                   :
 energy of atom  1       EATOM= -147.1560
 kinetic energy error for atom=    0.0071 (will be added to EATOM!!)
  PAW_PBE H 15Jun2001                   :
 energy of atom  2       EATOM=  -12.4884
 kinetic energy error for atom=    0.0014 (will be added to EATOM!!)
 
 
 POSCAR: ch3 only in larger cell                 
  positions in direct lattice
  velocities in cartesian coordinates
 exchange correlation table for  LEXCH =        8
   RHO(1)=    0.500       N(1)  =     2000
   RHO(2)=  100.500       N(2)  =     4000
 


--------------------------------------------------------------------------------------------------------


 ion  position               nearest neighbor table
   1  0.028  0.057  0.006-   3 1.09   4 1.09   2 1.09
   2  0.913  0.974  0.013-   1 1.09
   3  0.053  0.168  0.997-   1 1.09
   4  0.118  0.030  0.008-   1 1.09
 
  LATTYP: Found a hexagonal cell.
 ALAT       =    10.2313750982
 C/A-ratio  =     3.6565155755
  
  Lattice vectors:
  
 A1 = (  10.2313750981,   0.0000000000,   0.0000000000)
 A2 = (  -5.1156875490,   8.8606307507,   0.0000000000)
 A3 = (   0.0000000000,   0.0000000000,  37.4111824051)


Analysis of symmetry for initial positions (statically):
=====================================================================
 Subroutine PRICEL returns:
 Original cell was already a primitive cell.
 

 Routine SETGRP: Setting up the symmetry group for a 
 hexagonal supercell.


 Subroutine GETGRP returns: Found  1 space group operations
 (whereof  1 operations were pure point group operations)
 out of a pool of 24 trial point group operations.


The static configuration has the point symmetry C_1 .


Analysis of symmetry for dynamics (positions and initial velocities):
=====================================================================
 Subroutine PRICEL returns:
 Original cell was already a primitive cell.
 

 Routine SETGRP: Setting up the symmetry group for a 
 hexagonal supercell.


 Subroutine GETGRP returns: Found  1 space group operations
 (whereof  1 operations were pure point group operations)
 out of a pool of 24 trial point group operations.


The dynamic configuration has the point symmetry C_1 .


Analysis of magnetic symmetry:
=====================================================================

 Subroutine MAGSYM returns: Found  1 space group operations
 (whereof  1 operations were pure point group operations)
 out of a pool of  1 trial space group operations
 (whereof  1 operations were pure point group operations)
 and found also     1 'primitive' translations


The magnetic configuration has the point symmetry C_1 .


 irot  :   1
 --------------------------------------------------------------------
 isymop:   1   0   0
           0   1   0
           0   0   1

 gtrans:     0.0000000     0.0000000     0.0000000

 ptrans:     0.0000000     0.0000000     0.0000000
 rotmap:
 (   1->   1)  (   2->   2)  (   3->   3)  (   4->   4) 
 
 
 KPOINTS: kpoints                                 

Automatic generation of k-mesh.
Space group operators:
 irot       det(A)        alpha          n_x          n_y          n_z        tau_x        tau_y        tau_z
    1     1.000000     0.000000     1.000000     0.000000     0.000000     0.000000     0.000000     0.000000
 
 Subroutine IBZKPT returns following result:
 ===========================================
 
 Found      5 irreducible k-points:
 
 Following reciprocal coordinates:
            Coordinates               Weight
  0.000000  0.000000  0.000000      1.000000
  0.333333  0.000000  0.000000      2.000000
  0.000000  0.333333  0.000000      2.000000
  0.333333  0.333333  0.000000      2.000000
 -0.333333  0.333333  0.000000      2.000000
 
 Following cartesian coordinates:
            Coordinates               Weight
  0.000000  0.000000  0.000000      1.000000
  0.032580  0.018810  0.000000      2.000000
  0.000000  0.037620  0.000000      2.000000
  0.032580  0.056429  0.000000      2.000000
 -0.032580  0.018810  0.000000      2.000000
 
 
 Subroutine IBZKPT_HF returns following result:
 ==============================================
 
 Found      9 k-points in 1st BZ
 the following      9 k-points will be used (e.g. in the exchange kernel)
 Following reciprocal coordinates:   # in IRBZ
  0.000000  0.000000  0.000000       1 t-inv F
  0.333333  0.000000  0.000000       2 t-inv F
  0.000000  0.333333  0.000000       3 t-inv F
  0.333333  0.333333  0.000000       4 t-inv F
 -0.333333  0.333333  0.000000       5 t-inv F
 -0.333333  0.000000  0.000000       2 t-inv T
  0.000000 -0.333333  0.000000       3 t-inv T
 -0.333333 -0.333333  0.000000       4 t-inv T
  0.333333 -0.333333  0.000000       5 t-inv T


--------------------------------------------------------------------------------------------------------




 Dimension of arrays:
   k-points           NKPTS =      5   k-points in BZ     NKDIM =      5   number of bands    NBANDS=     24
   number of dos      NEDOS =    301   number of ions     NIONS =      4
   non local maximal  LDIM  =      4   non local SUM 2l+1 LMDIM =      8
   total plane-waves  NPLWV = ******
   max r-space proj   IRMAX =   3978   max aug-charges    IRDMAX=  50075
   dimension x,y,z NGX =    80 NGY =   80 NGZ =  280
   dimension x,y,z NGXF=   160 NGYF=  160 NGZF=  560
   support grid    NGXF=   320 NGYF=  320 NGZF= 1120
   ions per type =               1   3
 NGX,Y,Z   is equivalent  to a cutoff of  13.00, 13.00, 12.44 a.u.
 NGXF,Y,Z  is equivalent  to a cutoff of  26.00, 26.00, 24.88 a.u.


 I would recommend the setting:
   dimension x,y,z NGX =    76 NGY =   76 NGZ =  278
 SYSTEM =  fe2O3 (0001) surface scan               
 POSCAR =  ch3 only in larger cell                 

 Startparameter for this run:
   NWRITE =      2    write-flag & timer
   PREC   = accura    normal or accurate (medium, high low for compatibility)
   ISTART =      0    job   : 0-new  1-cont  2-samecut
   ICHARG =      2    charge: 1-file 2-atom 10-const
   ISPIN  =      2    spin polarized calculation?
   LNONCOLLINEAR =      F non collinear calculations
   LSORBIT =      F    spin-orbit coupling
   INIWAV =      1    electr: 0-lowe 1-rand  2-diag
   LASPH  =      T    aspherical Exc in radial PAW
   METAGGA=      F    non-selfconsistent MetaGGA calc.

 Electronic Relaxation 1
   ENCUT  =  520.0 eV  38.22 Ry    6.18 a.u.  19.02 19.02 69.56*2*pi/ulx,y,z
   ENINI  =  520.0     initial cutoff
   ENAUG  =  644.9 eV  augmentation charge cutoff
   NELM   =    200;   NELMIN=  8; NELMDL= -5     # of ELM steps 
   EDIFF  = 0.1E-05   stopping-criterion for ELM
   LREAL  =      T    real-space projection
   NLSPLINE    = F    spline interpolate recip. space projectors
   LCOMPAT=      F    compatible to vasp.4.4
   GGA_COMPAT  = T    GGA compatible to vasp.4.4-vasp.4.6
   LMAXPAW     = -100 max onsite density
   LMAXMIX     =    4 max onsite mixed and CHGCAR
   VOSKOWN=      1    Vosko Wilk Nusair interpolation
   ROPT   =   -0.00025  -0.00025
 Ionic relaxation
   EDIFFG = 0.1E-04   stopping-criterion for IOM
   NSW    =     85    number of steps for IOM
   NBLOCK =      1;   KBLOCK =      1    inner block; outer block 
   IBRION =      6    ionic relax: 0-MD 1-quasi-New 2-CG
   NFREE  =      2    steps in history (QN), initial steepest desc. (CG)
   ISIF   =      2    stress and relaxation
   IWAVPR =     11    prediction:  0-non 1-charg 2-wave 3-comb
   ISYM   =      2    0-nonsym 1-usesym 2-fastsym
   LCORR  =      T    Harris-Foulkes like correction to forces

   POTIM  = 0.0100    time-step for ionic-motion
   TEIN   =    0.0    initial temperature
   TEBEG  =    0.0;   TEEND  =   0.0 temperature during run
   SMASS  =  -3.00    Nose mass-parameter (am)
   estimated Nose-frequenzy (Omega)   =  0.10E-29 period in steps =****** mass=  -0.239E-26a.u.
   SCALEE = 1.0000    scale energy and forces
   NPACO  =    256;   APACO  = 16.0  distance and # of slots for P.C.
   PSTRESS=    0.0 pullay stress

  Mass of Ions in am
   POMASS =  12.01  1.00
  Ionic Valenz
   ZVAL   =   4.00  1.00
  Atomic Wigner-Seitz radii
   RWIGS  =  -1.00 -1.00
  virtual crystal weights 
   VCA    =   1.00  1.00
   NELECT =       7.0000    total number of electrons
   NUPDOWN=       1.0000    fix difference up-down

 DOS related values:
   EMIN   =  10.00;   EMAX   =-10.00  energy-range for DOS
   EFERMI =   0.00
   ISMEAR =     0;   SIGMA  =   0.10  broadening in eV -4-tet -1-fermi 0-gaus

 Electronic relaxation 2 (details)
   IALGO  =     38    algorithm
   LDIAG  =      T    sub-space diagonalisation (order eigenvalues)
   LSUBROT=      T    optimize rotation matrix (better conditioning)
   TURBO    =      0    0=normal 1=particle mesh
   IRESTART =      0    0=no restart 2=restart with 2 vectors
   NREBOOT  =      0    no. of reboots
   NMIN     =      0    reboot dimension
   EREF     =   0.00    reference energy to select bands
   IMIX   =      4    mixing-type and parameters
     AMIX     =   0.20;   BMIX     =  0.00
     AMIX_MAG =   0.80;   BMIX_MAG =  0.00
     AMIN     =   0.10
     WC   =   100.;   INIMIX=   1;  MIXPRE=   1;  MAXMIX= -45

 Intra band minimization:
   WEIMIN = 0.0010     energy-eigenvalue tresh-hold
   EBREAK =  0.10E-07  absolut break condition
   DEPER  =   0.30     relativ break condition  

   TIME   =   0.40     timestep for ELM

  volume/ion in A,a.u.               =     847.89      5721.85
  Fermi-wavevector in a.u.,A,eV,Ry     =   0.208437  0.393888  0.591117  0.043446
  Thomas-Fermi vector in A             =   0.973511
 
 Write flags
   LWAVE  =      F    write WAVECAR
   LCHARG =      F    write CHGCAR
   LVTOT  =      F    write LOCPOT, total local potential
   LVHAR  =      F    write LOCPOT, Hartree potential only
   LELF   =      F    write electronic localiz. function (ELF)
   LORBIT =      0    0 simple, 1 ext, 2 COOP (PROOUT)


 Dipole corrections
   LMONO  =      F    monopole corrections only (constant potential shift)
   LDIPOL =      F    correct potential (dipole corrections)
   IDIPOL =      0    1-x, 2-y, 3-z, 4-all directions 
   EPSILON=  1.0000000 bulk dielectric constant

 LDA+U is selected, type is set to LDAUTYPE =  2
   angular momentum for each species LDAUL =     1    0
   U (eV)           for each species LDAUU =   0.0  0.0
   J (eV)           for each species LDAUJ =   0.0  0.0
 Exchange correlation treatment:
   GGA     =    --    GGA type
   LEXCH   =     8    internal setting for exchange type
   VOSKOWN=      1    Vosko Wilk Nusair interpolation
   LHFCALC =     F    Hartree Fock is set to
   LHFONE  =     F    Hartree Fock one center treatment
   AEXX    =    0.0000 exact exchange contribution

 Linear response parameters
   LEPSILON=     F    determine dielectric tensor
   LRPA    =     F    only Hartree local field effects (RPA)
   LNABLA  =     F    use nabla operator in PAW spheres
   LVEL    =     F    velocity operator in full k-point grid
   LINTERFAST=   F  fast interpolation
   KINTER  =     0    interpolate to denser k-point grid
   CSHIFT  =0.1000    complex shift for real part using Kramers Kronig
   OMEGAMAX=  -1.0    maximum frequency
   DEG_THRESHOLD= 0.2000000E-02 threshold for treating states as degnerate
   RTIME   =    0.100 relaxation time in fs

 Orbital magnetization related:
   ORBITALMAG=     F  switch on orbital magnetization
   LCHIMAG   =     F  perturbation theory with respect to B field
   DQ        =  0.001000  dq finite difference perturbation B field



--------------------------------------------------------------------------------------------------------


 finite differences with symmetry
 charge density and potential will be updated during run
 spin polarized calculation
 Variant of blocked Davidson
 Davidson routine will perform the subspace rotation
 perform sub-space diagonalisation
    after iterative eigenvector-optimisation
 modified Broyden-mixing scheme, WC =      100.0
 initial mixing is a Kerker type mixing with AMIX =  0.2000 and BMIX =      0.0001
 Hartree-type preconditioning will be used
 using additional bands           20
 real space projection scheme for non local part
 use partial core corrections
 calculate Harris-corrections to forces 
   (improved forces if not selfconsistent)
 use gradient corrections 
 use of overlap-Matrix (Vanderbilt PP)
 Gauss-broadening in eV      SIGMA  =   0.10


--------------------------------------------------------------------------------------------------------


  energy-cutoff  :      520.00
  volume of cell :     3391.56
      direct lattice vectors                 reciprocal lattice vectors
    10.231375098  0.000000000  0.000000000     0.097738573  0.056429391  0.000000000
    -5.115687549  8.860630751  0.000000000     0.000000000  0.112858783  0.000000000
     0.000000000  0.000000000 37.411182405     0.000000000  0.000000000  0.026729976

  length of vectors
    10.231375098 10.231375098 37.411182405     0.112858783  0.112858783  0.026729976


 
 k-points in units of 2pi/SCALE and weight: kpoints                                 
   0.00000000  0.00000000  0.00000000       0.111
   0.03257952  0.01880980  0.00000000       0.222
   0.00000000  0.03761959  0.00000000       0.222
   0.03257952  0.05642939  0.00000000       0.222
  -0.03257952  0.01880980  0.00000000       0.222
 
 k-points in reciprocal lattice and weights: kpoints                                 
   0.00000000  0.00000000  0.00000000       0.111
   0.33333333  0.00000000  0.00000000       0.222
   0.00000000  0.33333333  0.00000000       0.222
   0.33333333  0.33333333  0.00000000       0.222
  -0.33333333  0.33333333  0.00000000       0.222
 
 position of ions in fractional coordinates (direct lattice) 
   0.02813850  0.05698111  0.00596977
   0.91335735  0.97367454  0.01331070
   0.05340844  0.16766193  0.99657586
   0.11768017  0.02968230  0.00817413
 
 position of ions in cartesian coordinates  (Angst):
  -0.00360199  0.50488856  0.22333621
   4.36388693  8.62737057  0.49796917
  -0.31126426  1.48559044 37.28308111
   1.05218461  0.26300390  0.30580403
 


--------------------------------------------------------------------------------------------------------


 k-point  1 :   0.0000 0.0000 0.0000  plane waves:   91045
 k-point  2 :   0.3333 0.0000 0.0000  plane waves:   91327
 k-point  3 :   0.0000 0.3333 0.0000  plane waves:   91327
 k-point  4 :   0.3333 0.3333 0.0000  plane waves:   91329
 k-point  5 :  -0.3333 0.3333 0.0000  plane waves:   91327

 maximum and minimum number of plane-waves per node :     91329    91045

 maximum number of plane-waves:     91329
 maximum index in each direction: 
   IXMAX=   19   IYMAX=   19   IZMAX=   69
   IXMIN=  -19   IYMIN=  -19   IZMIN=  -69

 NGX is ok and might be reduce to  78
 NGY is ok and might be reduce to  78
 NGZ is ok and might be reduce to 278

 serial   3D FFT for wavefunctions
 parallel 3D FFT for charge:
    minimum data exchange during FFTs selected (reduces bandwidth)


 total amount of memory used by VASP on root node   337131. kBytes
========================================================================

   base      :      30000. kBytes
   nonlr-proj:        944. kBytes
   fftplans  :      97661. kBytes
   grid      :     193884. kBytes
   one-center:         24. kBytes
   wavefun   :      14618. kBytes
 
 Broyden mixing: mesh for mixing (old mesh)
   NGX = 39   NGY = 39   NGZ =139
  (NGX  =160   NGY  =160   NGZ  =560)
  gives a total of 211419 points

 initial charge density was supplied:
 charge density of overlapping atoms calculated
 number of electron       7.0000000 magnetization       1.0000000
 keeping initial charge density in first step


--------------------------------------------------------------------------------------------------------


 Maximum index for non-local projection operator         3822
 Maximum index for augmentation-charges         2968 (set IRDMAX)


--------------------------------------------------------------------------------------------------------


 First call to EWALD:  gamma=   0.118
 Maximum number of real-space cells 4x 4x 1
 Maximum number of reciprocal cells 2x 2x 6

 FEWALD executed in parallel
    FEWALD:  cpu time    0.00: real time    0.00


----------------------------------------- Iteration    1(   1)  ---------------------------------------


    POTLOK:  cpu time    1.70: real time    1.70
    SETDIJ:  cpu time    1.03: real time    1.03
     EDDAV:  cpu time    5.91: real time    5.92
       DOS:  cpu time    0.00: real time    0.00
    --------------------------------------------
      LOOP:  cpu time    8.64: real time    8.69

 eigenvalue-minimisations  :   480
 total energy-change (2. order) : 0.3633500E+02  (-0.1003384E+03)
 number of electron       7.0000000 magnetization       1.0000000
 augmentation part        7.0000000 magnetization       1.0000000

 Free energy of the ion-electron system (eV)
  ---------------------------------------------------
  alpha Z        PSCENC =         0.05747090
  Ewald energy   TEWEN  =       190.00632534
  -1/2 Hartree   DENC   =      -305.02999568
  -exchange  EXHF       =         0.00000000
  -V(xc)+E(xc)   XCENC  =        20.58175497
  PAW double counting   =       111.64379722     -111.98481970
  entropy T*S    EENTRO =        -0.01904374
  eigenvalues    EBANDS =       -53.53029402
  atomic energy  EATOM  =       184.60980595
  ---------------------------------------------------
  free energy    TOTEN  =        36.33500124 eV

  energy without entropy =       36.35404498  energy(sigma->0) =       36.34452311


--------------------------------------------------------------------------------------------------------




----------------------------------------- Iteration    1(   2)  ---------------------------------------


     EDDAV:  cpu time    9.15: real time    9.19
       DOS:  cpu time    0.00: real time    0.00
    --------------------------------------------
      LOOP:  cpu time    9.16: real time    9.20

 eigenvalue-minimisations  :   816
 total energy-change (2. order) :-0.4914302E+02  (-0.4603533E+02)
 number of electron       7.0000000 magnetization       1.0000000
 augmentation part        7.0000000 magnetization       1.0000000

 Free energy of the ion-electron system (eV)
  ---------------------------------------------------
  alpha Z        PSCENC =         0.05747090
  Ewald energy   TEWEN  =       190.00632534
  -1/2 Hartree   DENC   =      -305.02999568
  -exchange  EXHF       =         0.00000000
  -V(xc)+E(xc)   XCENC  =        20.58175497
  PAW double counting   =       111.64379722     -111.98481970
  entropy T*S    EENTRO =         0.00000000
  eigenvalues    EBANDS =      -102.69236024
  atomic energy  EATOM  =       184.60980595
  ---------------------------------------------------
  free energy    TOTEN  =       -12.80802124 eV

  energy without entropy =      -12.80802124  energy(sigma->0) =      -12.80802124


--------------------------------------------------------------------------------------------------------




----------------------------------------- Iteration    1(   3)  ---------------------------------------


     EDDAV:  cpu time    6.15: real time    6.17
       DOS:  cpu time    0.00: real time    0.00
    --------------------------------------------
      LOOP:  cpu time    6.16: real time    6.18

 eigenvalue-minimisations  :   504
 total energy-change (2. order) :-0.3987705E+01  (-0.3987705E+01)
 number of electron       7.0000000 magnetization       1.0000000
 augmentation part        7.0000000 magnetization       1.0000000

 Free energy of the ion-electron system (eV)
  ---------------------------------------------------
  alpha Z        PSCENC =         0.05747090
  Ewald energy   TEWEN  =       190.00632534
  -1/2 Hartree   DENC   =      -305.02999568
  -exchange  EXHF       =         0.00000000
  -V(xc)+E(xc)   XCENC  =        20.58175497
  PAW double counting   =       111.64379722     -111.98481970
  entropy T*S    EENTRO =         0.00000000
  eigenvalues    EBANDS =      -106.68006504
  atomic energy  EATOM  =       184.60980595
  ---------------------------------------------------
  free energy    TOTEN  =       -16.79572605 eV

  energy without entropy =      -16.79572605  energy(sigma->0) =      -16.79572605


--------------------------------------------------------------------------------------------------------




----------------------------------------- Iteration    1(   4)  ---------------------------------------


     EDDAV:  cpu time    8.63: real time    8.66
       DOS:  cpu time    0.00: real time    0.00
    --------------------------------------------
      LOOP:  cpu time    8.63: real time    8.67

 eigenvalue-minimisations  :   768
 total energy-change (2. order) :-0.9253808E-01  (-0.9253808E-01)
 number of electron       7.0000000 magnetization       1.0000000
 augmentation part        7.0000000 magnetization       1.0000000

 Free energy of the ion-electron system (eV)
  ---------------------------------------------------
  alpha Z        PSCENC =         0.05747090
  Ewald energy   TEWEN  =       190.00632534
  -1/2 Hartree   DENC   =      -305.02999568
  -exchange  EXHF       =         0.00000000
  -V(xc)+E(xc)   XCENC  =        20.58175497
  PAW double counting   =       111.64379722     -111.98481970
  entropy T*S    EENTRO =         0.00000000
  eigenvalues    EBANDS =      -106.77260312
  atomic energy  EATOM  =       184.60980595
  ---------------------------------------------------
  free energy    TOTEN  =       -16.88826413 eV

  energy without entropy =      -16.88826413  energy(sigma->0) =      -16.88826413


--------------------------------------------------------------------------------------------------------




----------------------------------------- Iteration    1(   5)  ---------------------------------------


     EDDAV:  cpu time    6.86: real time    6.90
       DOS:  cpu time    0.00: real time    0.00
    CHARGE:  cpu time    1.54: real time    1.55
    MIXING:  cpu time    0.07: real time    0.07
    --------------------------------------------
      LOOP:  cpu time    8.48: real time   25.62

 eigenvalue-minimisations  :   576
 total energy-change (2. order) :-0.2589495E-03  (-0.2589486E-03)
 number of electron       7.0000000 magnetization       1.0000000
 augmentation part        0.1842561 magnetization       0.0645595

 Broyden mixing:
  rms(total) = 0.10073E+01    rms(broyden)= 0.10071E+01
  rms(prec ) = 0.10267E+01
  weight for this iteration     100.00

 Free energy of the ion-electron system (eV)
  ---------------------------------------------------
  alpha Z        PSCENC =         0.05747090
  Ewald energy   TEWEN  =       190.00632534
  -1/2 Hartree   DENC   =      -305.02999568
  -exchange  EXHF       =         0.00000000
  -V(xc)+E(xc)   XCENC  =        20.58175497
  PAW double counting   =       111.64379722     -111.98481970
  entropy T*S    EENTRO =         0.00000000
  eigenvalues    EBANDS =      -106.77286207
  atomic energy  EATOM  =       184.60980595
  ---------------------------------------------------
  free energy    TOTEN  =       -16.88852308 eV

  energy without entropy =      -16.88852308  energy(sigma->0) =      -16.88852308


--------------------------------------------------------------------------------------------------------




----------------------------------------- Iteration    1(   6)  ---------------------------------------


    POTLOK:  cpu time    1.64: real time    1.65
    SETDIJ:  cpu time    1.03: real time    1.03
     EDDAV:  cpu time    7.48: real time    7.50
       DOS:  cpu time    0.00: real time    0.00
    CHARGE:  cpu time    1.56: real time    1.57
    MIXING:  cpu time    0.05: real time    0.05
    --------------------------------------------
      LOOP:  cpu time   11.77: real time   11.82

 eigenvalue-minimisations  :   648
 total energy-change (2. order) :-0.1584633E+01  (-0.1015678E+01)
 number of electron       7.0000000 magnetization       1.0000000
 augmentation part        0.1718112 magnetization       0.0569278

 Broyden mixing:
  rms(total) = 0.64330E+00    rms(broyden)= 0.64325E+00
  rms(prec ) = 0.65380E+00
  weight for this iteration     100.00

 eigenvalues of (default mixing * dielectric matrix)
  average eigenvalue GAMMA=   1.6187
  1.6187

 Free energy of the ion-electron system (eV)
  ---------------------------------------------------
  alpha Z        PSCENC =         0.05747090
  Ewald energy   TEWEN  =       190.00632534
  -1/2 Hartree   DENC   =      -315.73884724
  -exchange  EXHF       =         0.00000000
  -V(xc)+E(xc)   XCENC  =        20.41996498
  PAW double counting   =       149.99272532     -150.59631842
  entropy T*S    EENTRO =         0.00000000
  eigenvalues    EBANDS =       -97.22428256
  atomic energy  EATOM  =       184.60980595
  ---------------------------------------------------
  free energy    TOTEN  =       -18.47315572 eV

  energy without entropy =      -18.47315572  energy(sigma->0) =      -18.47315572


--------------------------------------------------------------------------------------------------------




----------------------------------------- Iteration    1(   7)  ---------------------------------------


    POTLOK:  cpu time    1.65: real time    1.66
    SETDIJ:  cpu time    1.03: real time    1.03
     EDDAV:  cpu time    7.04: real time    7.07
       DOS:  cpu time    0.00: real time    0.00
    CHARGE:  cpu time    1.56: real time    1.57
    MIXING:  cpu time    0.02: real time    0.02
    --------------------------------------------
      LOOP:  cpu time   11.31: real time   11.57

 eigenvalue-minimisations  :   600
 total energy-change (2. order) : 0.1052475E+00  (-0.3536806E+00)
 number of electron       7.0000000 magnetization       1.0000000
 augmentation part        0.1589500 magnetization       0.0481952

 Broyden mixing:
  rms(total) = 0.34061E+00    rms(broyden)= 0.34056E+00
  rms(prec ) = 0.34521E+00
  weight for this iteration     100.00

 eigenvalues of (default mixing * dielectric matrix)
  average eigenvalue GAMMA=   1.5406
  1.1320  1.9492

 Free energy of the ion-electron system (eV)
  ---------------------------------------------------
  alpha Z        PSCENC =         0.05747090
  Ewald energy   TEWEN  =       190.00632534
  -1/2 Hartree   DENC   =      -326.18879090
  -exchange  EXHF       =         0.00000000
  -V(xc)+E(xc)   XCENC  =        20.74244618
  PAW double counting   =       208.08137453     -208.77173180
  entropy T*S    EENTRO =         0.00000000
  eigenvalues    EBANDS =       -86.90480837
  atomic energy  EATOM  =       184.60980595
  ---------------------------------------------------
  free energy    TOTEN  =       -18.36790818 eV

  energy without entropy =      -18.36790818  energy(sigma->0) =      -18.36790818


--------------------------------------------------------------------------------------------------------




----------------------------------------- Iteration    1(   8)  ---------------------------------------


    POTLOK:  cpu time    1.66: real time    1.66
    SETDIJ:  cpu time    1.03: real time    1.03
     EDDAV:  cpu time   10.00: real time   10.07
       DOS:  cpu time    0.00: real time    0.00
    CHARGE:  cpu time    1.56: real time    1.56
    MIXING:  cpu time    0.06: real time    0.06
    --------------------------------------------
      LOOP:  cpu time   14.30: real time   14.40

 eigenvalue-minimisations  :   912
 total energy-change (2. order) : 0.1398593E+00  (-0.3209205E-01)
 number of electron       7.0000000 magnetization       1.0000000
 augmentation part        0.1536365 magnetization       0.0453124

 Broyden mixing:
  rms(total) = 0.21368E+00    rms(broyden)= 0.21367E+00
  rms(prec ) = 0.21593E+00
  weight for this iteration     100.00

 eigenvalues of (default mixing * dielectric matrix)
  average eigenvalue GAMMA=   2.0386
  3.1201  0.9970  1.9988

 Free energy of the ion-electron system (eV)
  ---------------------------------------------------
  alpha Z        PSCENC =         0.05747090
  Ewald energy   TEWEN  =       190.00632534
  -1/2 Hartree   DENC   =      -331.12634239
  -exchange  EXHF       =         0.00000000
  -V(xc)+E(xc)   XCENC  =        21.08007202
  PAW double counting   =       263.28747027     -264.00913454
  entropy T*S    EENTRO =         0.00000000
  eigenvalues    EBANDS =       -82.13371647
  atomic energy  EATOM  =       184.60980595
  ---------------------------------------------------
  free energy    TOTEN  =       -18.22804892 eV

  energy without entropy =      -18.22804892  energy(sigma->0) =      -18.22804892


--------------------------------------------------------------------------------------------------------




----------------------------------------- Iteration    1(   9)  ---------------------------------------


    POTLOK:  cpu time    1.68: real time    1.69
    SETDIJ:  cpu time    1.03: real time    1.03
     EDDAV:  cpu time    9.29: real time    9.33
       DOS:  cpu time    0.00: real time    0.00
    CHARGE:  cpu time    1.55: real time    1.56
    MIXING:  cpu time    0.06: real time    0.06
    --------------------------------------------
      LOOP:  cpu time   13.61: real time   14.50

 eigenvalue-minimisations  :   840
 total energy-change (2. order) : 0.7349806E-01  (-0.1254223E-01)
 number of electron       7.0000000 magnetization       1.0000000
 augmentation part        0.1514707 magnetization       0.0452264

 Broyden mixing:
  rms(total) = 0.37509E-01    rms(broyden)= 0.37499E-01
  rms(prec ) = 0.37627E-01
  weight for this iteration     100.00

 eigenvalues of (default mixing * dielectric matrix)
  average eigenvalue GAMMA=   2.0236
  4.0099  1.9343  0.9725  1.1777

 Free energy of the ion-electron system (eV)
  ---------------------------------------------------
  alpha Z        PSCENC =         0.05747090
  Ewald energy   TEWEN  =       190.00632534
  -1/2 Hartree   DENC   =      -335.01145000
  -exchange  EXHF       =         0.00000000
  -V(xc)+E(xc)   XCENC  =        21.45845861
  PAW double counting   =       351.69087464     -352.42039582
  entropy T*S    EENTRO =         0.00000000
  eigenvalues    EBANDS =       -78.54564048
  atomic energy  EATOM  =       184.60980595
  ---------------------------------------------------
  free energy    TOTEN  =       -18.15455086 eV

  energy without entropy =      -18.15455086  energy(sigma->0) =      -18.15455086


--------------------------------------------------------------------------------------------------------




----------------------------------------- Iteration    1(  10)  ---------------------------------------


    POTLOK:  cpu time    1.65: real time    1.66
    SETDIJ:  cpu time    1.04: real time    1.04
     EDDAV:  cpu time    6.79: real time    6.82
       DOS:  cpu time    0.01: real time    0.01
    CHARGE:  cpu time    1.56: real time    1.56
    MIXING:  cpu time    0.06: real time    0.06
    --------------------------------------------
      LOOP:  cpu time   11.11: real time   11.17

 eigenvalue-minimisations  :   576
 total energy-change (2. order) :-0.1164550E-01  (-0.5536788E-03)
 number of electron       7.0000000 magnetization       1.0000000
 augmentation part        0.1514760 magnetization       0.0452563

 Broyden mixing:
  rms(total) = 0.15111E-01    rms(broyden)= 0.15110E-01
  rms(prec ) = 0.15234E-01
  weight for this iteration     100.00

 eigenvalues of (default mixing * dielectric matrix)
  average eigenvalue GAMMA=   1.9487
  4.2429  1.9754  1.0147  1.0147  1.4961

 Free energy of the ion-electron system (eV)
  ---------------------------------------------------
  alpha Z        PSCENC =         0.05747090
  Ewald energy   TEWEN  =       190.00632534
  -1/2 Hartree   DENC   =      -335.33221688
  -exchange  EXHF       =         0.00000000
  -V(xc)+E(xc)   XCENC  =        21.48428059
  PAW double counting   =       362.45975628     -363.18494057
  entropy T*S    EENTRO =         0.00000000
  eigenvalues    EBANDS =       -78.26667797
  atomic energy  EATOM  =       184.60980595
  ---------------------------------------------------
  free energy    TOTEN  =       -18.16619636 eV

  energy without entropy =      -18.16619636  energy(sigma->0) =      -18.16619636


--------------------------------------------------------------------------------------------------------




----------------------------------------- Iteration    1(  11)  ---------------------------------------


    POTLOK:  cpu time    1.66: real time    1.66
    SETDIJ:  cpu time    1.03: real time    1.04
     EDDAV:  cpu time    8.87: real time    8.92
       DOS:  cpu time    0.00: real time    0.00
    CHARGE:  cpu time    1.57: real time    1.57
    MIXING:  cpu time    0.05: real time    0.05
    --------------------------------------------
      LOOP:  cpu time   13.19: real time   13.39

 eigenvalue-minimisations  :   792
 total energy-change (2. order) :-0.1216299E-02  (-0.8206252E-04)
 number of electron       7.0000000 magnetization       1.0000000
 augmentation part        0.1516954 magnetization       0.0453042

 Broyden mixing:
  rms(total) = 0.92040E-02    rms(broyden)= 0.92035E-02
  rms(prec ) = 0.92818E-02
  weight for this iteration     100.00

 eigenvalues of (default mixing * dielectric matrix)
  average eigenvalue GAMMA=   2.1861
  4.3637  3.2670  2.0777  0.9911  1.0648  1.3525

 Free energy of the ion-electron system (eV)
  ---------------------------------------------------
  alpha Z        PSCENC =         0.05747090
  Ewald energy   TEWEN  =       190.00632534
  -1/2 Hartree   DENC   =      -335.23912321
  -exchange  EXHF       =         0.00000000
  -V(xc)+E(xc)   XCENC  =        21.47798806
  PAW double counting   =       364.92407869     -365.64752030
  entropy T*S    EENTRO =         0.00000000
  eigenvalues    EBANDS =       -78.35643809
  atomic energy  EATOM  =       184.60980595
  ---------------------------------------------------
  free energy    TOTEN  =       -18.16741266 eV

  energy without entropy =      -18.16741266  energy(sigma->0) =      -18.16741266


--------------------------------------------------------------------------------------------------------




----------------------------------------- Iteration    1(  12)  ---------------------------------------


    POTLOK:  cpu time    1.66: real time    1.67
    SETDIJ:  cpu time    1.03: real time    1.03
     EDDAV:  cpu time    7.91: real time    7.94
       DOS:  cpu time    0.00: real time    0.00
    CHARGE:  cpu time    1.57: real time    1.58
    MIXING:  cpu time    0.05: real time    0.05
    --------------------------------------------
      LOOP:  cpu time   12.23: real time   17.06

 eigenvalue-minimisations  :   696
 total energy-change (2. order) :-0.1704078E-03  (-0.2073866E-04)
 number of electron       7.0000000 magnetization       1.0000000
 augmentation part        0.1517537 magnetization       0.0452848

 Broyden mixing:
  rms(total) = 0.33905E-02    rms(broyden)= 0.33902E-02
  rms(prec ) = 0.33994E-02
  weight for this iteration     100.00

 eigenvalues of (default mixing * dielectric matrix)
  average eigenvalue GAMMA=   2.1088
  4.2931  4.0869  1.9797  1.4584  1.0939  0.9568  0.8931

 Free energy of the ion-electron system (eV)
  ---------------------------------------------------
  alpha Z        PSCENC =         0.05747090
  Ewald energy   TEWEN  =       190.00632534
  -1/2 Hartree   DENC   =      -335.15520662
  -exchange  EXHF       =         0.00000000
  -V(xc)+E(xc)   XCENC  =        21.46806951
  PAW double counting   =       368.26659579     -368.99091255
  entropy T*S    EENTRO =         0.00000000
  eigenvalues    EBANDS =       -78.42973138
  atomic energy  EATOM  =       184.60980595
  ---------------------------------------------------
  free energy    TOTEN  =       -18.16758307 eV

  energy without entropy =      -18.16758307  energy(sigma->0) =      -18.16758307


--------------------------------------------------------------------------------------------------------




----------------------------------------- Iteration    1(  13)  ---------------------------------------


    POTLOK:  cpu time    1.66: real time    1.67
    SETDIJ:  cpu time    1.03: real time    1.04
     EDDAV:  cpu time    8.17: real time    8.20
       DOS:  cpu time    0.00: real time    0.00
    CHARGE:  cpu time    1.56: real time    1.57
    MIXING:  cpu time    0.06: real time    0.06
    --------------------------------------------
      LOOP:  cpu time   12.49: real time   16.60

 eigenvalue-minimisations  :   720
 total energy-change (2. order) :-0.5274572E-04  (-0.6172474E-05)
 number of electron       7.0000000 magnetization       1.0000000
 augmentation part        0.1517930 magnetization       0.0453146

 Broyden mixing:
  rms(total) = 0.14151E-02    rms(broyden)= 0.14150E-02
  rms(prec ) = 0.14179E-02
  weight for this iteration     100.00

 eigenvalues of (default mixing * dielectric matrix)
  average eigenvalue GAMMA=   2.1315
  4.9003  4.1600  1.9821  1.6865  1.2532  1.1410  0.9644  0.9644

 Free energy of the ion-electron system (eV)
  ---------------------------------------------------
  alpha Z        PSCENC =         0.05747090
  Ewald energy   TEWEN  =       190.00632534
  -1/2 Hartree   DENC   =      -335.11274968
  -exchange  EXHF       =         0.00000000
  -V(xc)+E(xc)   XCENC  =        21.46506819
  PAW double counting   =       368.19093211     -368.91529743
  entropy T*S    EENTRO =         0.00000000
  eigenvalues    EBANDS =       -78.46919119
  atomic energy  EATOM  =       184.60980595
  ---------------------------------------------------
  free energy    TOTEN  =       -18.16763581 eV

  energy without entropy =      -18.16763581  energy(sigma->0) =      -18.16763581


--------------------------------------------------------------------------------------------------------




----------------------------------------- Iteration    1(  14)  ---------------------------------------


    POTLOK:  cpu time    1.64: real time    1.65
    SETDIJ:  cpu time    1.03: real time    1.03
     EDDAV:  cpu time    8.23: real time    8.26
       DOS:  cpu time    0.00: real time    0.00
    CHARGE:  cpu time    1.58: real time    1.58
    MIXING:  cpu time    0.05: real time    0.05
    --------------------------------------------
      LOOP:  cpu time   12.54: real time   19.27

 eigenvalue-minimisations  :   720
 total energy-change (2. order) :-0.5631096E-05  (-0.9888906E-06)
 number of electron       7.0000000 magnetization       1.0000000
 augmentation part        0.1517852 magnetization       0.0453212

 Broyden mixing:
  rms(total) = 0.58232E-03    rms(broyden)= 0.58225E-03
  rms(prec ) = 0.58334E-03
  weight for this iteration     100.00

 eigenvalues of (default mixing * dielectric matrix)
  average eigenvalue GAMMA=   2.1386
  4.8493  4.2018  2.4982  1.8816  1.6573  1.1595  1.0839  0.9756  0.9400

 Free energy of the ion-electron system (eV)
  ---------------------------------------------------
  alpha Z        PSCENC =         0.05747090
  Ewald energy   TEWEN  =       190.00632534
  -1/2 Hartree   DENC   =      -335.11478645
  -exchange  EXHF       =         0.00000000
  -V(xc)+E(xc)   XCENC  =        21.46510141
  PAW double counting   =       368.32307044     -369.04769688
  entropy T*S    EENTRO =         0.00000000
  eigenvalues    EBANDS =       -78.46693215
  atomic energy  EATOM  =       184.60980595
  ---------------------------------------------------
  free energy    TOTEN  =       -18.16764144 eV

  energy without entropy =      -18.16764144  energy(sigma->0) =      -18.16764144


--------------------------------------------------------------------------------------------------------




----------------------------------------- Iteration    1(  15)  ---------------------------------------


    POTLOK:  cpu time    1.66: real time    1.66
    SETDIJ:  cpu time    1.02: real time    1.04
     EDDAV:  cpu time    8.62: real time    8.65
       DOS:  cpu time    0.00: real time    0.00
    --------------------------------------------
      LOOP:  cpu time   11.31: real time   11.37

 eigenvalue-minimisations  :   768
 total energy-change (2. order) :-0.3528835E-06  (-0.4604573E-07)
 number of electron       7.0000000 magnetization       1.0000000
 augmentation part        0.1517852 magnetization       0.0453212

 Free energy of the ion-electron system (eV)
  ---------------------------------------------------
  alpha Z        PSCENC =         0.05747090
  Ewald energy   TEWEN  =       190.00632534
  -1/2 Hartree   DENC   =      -335.11737060
  -exchange  EXHF       =         0.00000000
  -V(xc)+E(xc)   XCENC  =        21.46536430
  PAW double counting   =       368.07637374     -368.80105596
  entropy T*S    EENTRO =         0.00000000
  eigenvalues    EBANDS =       -78.46455546
  atomic energy  EATOM  =       184.60980595
  ---------------------------------------------------
  free energy    TOTEN  =       -18.16764180 eV

  energy without entropy =      -18.16764180  energy(sigma->0) =      -18.16764180


--------------------------------------------------------------------------------------------------------




 average (electrostatic) potential at core
  the test charge radii are     0.6991  0.5201
  (the norm of the test charge is              1.0000)
       1 -58.6067       2 -42.1257       3 -42.1280       4 -42.1268
 
 
 
 E-fermi :  -9.4456     XC(G=0):  -0.2045     alpha+bet : -0.0540


 spin component 1

 k-point   1 :       0.0000    0.0000    0.0000
  band No.  band energies     occupation 
      1     -16.8531      1.00000
      2     -10.2041      1.00000
      3     -10.1985      1.00000
      4      -5.4149      1.00000
      5      -0.6561      0.00000
      6       0.0501      0.00000
      7       0.0698      0.00000
      8       0.3249      0.00000
      9       0.3357      0.00000
     10       0.8316      0.00000
     11       0.8425      0.00000
     12       1.0751      0.00000
     13       1.0923      0.00000
     14       1.3819      0.00000
     15       1.3840      0.00000
     16       1.4047      0.00000
     17       1.5204      0.00000
     18       1.5784      0.00000
     19       1.7665      0.00000
     20       1.7820      0.00000
     21       1.7975      0.00000
     22       1.9168      0.00000
     23       1.9836      0.00000
     24       1.9879      0.00000

 k-point   2 :       0.3333    0.0000    0.0000
  band No.  band energies     occupation 
      1     -16.8531      1.00000
      2     -10.2041      1.00000
      3     -10.1985      1.00000
      4      -5.4148      1.00000
      5      -0.4830      0.00000
      6       0.2545      0.00000
      7       0.2735      0.00000
      8       0.3270      0.00000
      9       0.5286      0.00000
     10       0.5578      0.00000
     11       0.8570      0.00000
     12       0.8872      0.00000
     13       0.9204      0.00000
     14       1.0205      0.00000
     15       1.0511      0.00000
     16       1.0765      0.00000
     17       1.1696      0.00000
     18       1.2024      0.00000
     19       1.4737      0.00000
     20       1.5469      0.00000
     21       1.5587      0.00000
     22       1.5614      0.00000
     23       1.6365      0.00000
     24       1.6799      0.00000

 k-point   3 :       0.0000    0.3333    0.0000
  band No.  band energies     occupation 
      1     -16.8531      1.00000
      2     -10.2041      1.00000
      3     -10.1985      1.00000
      4      -5.4149      1.00000
      5      -0.4835      0.00000
      6       0.2533      0.00000
      7       0.2741      0.00000
      8       0.3292      0.00000
      9       0.5290      0.00000
     10       0.5583      0.00000
     11       0.8500      0.00000
     12       0.8819      0.00000
     13       0.9206      0.00000
     14       1.0278      0.00000
     15       1.0505      0.00000
     16       1.0744      0.00000
     17       1.1686      0.00000
     18       1.2023      0.00000
     19       1.4845      0.00000
     20       1.5458      0.00000
     21       1.5595      0.00000
     22       1.5612      0.00000
     23       1.6329      0.00000
     24       1.6792      0.00000

 k-point   4 :       0.3333    0.3333    0.0000
  band No.  band energies     occupation 
      1     -16.8531      1.00000
      2     -10.2041      1.00000
      3     -10.1985      1.00000
      4      -5.4148      1.00000
      5      -0.3264      0.00000
      6       0.2509      0.00000
      7       0.2822      0.00000
      8       0.5719      0.00000
      9       0.7009      0.00000
     10       0.7134      0.00000
     11       0.7145      0.00000
     12       0.7199      0.00000
     13       0.7233      0.00000
     14       0.9076      0.00000
     15       0.9337      0.00000
     16       0.9900      0.00000
     17       0.9935      0.00000
     18       1.0016      0.00000
     19       1.0049      0.00000
     20       1.3831      0.00000
     21       1.4274      0.00000
     22       1.4949      0.00000
     23       1.5005      0.00000
     24       1.5228      0.00000

 k-point   5 :      -0.3333    0.3333    0.0000
  band No.  band energies     occupation 
      1     -16.8531      1.00000
      2     -10.2041      1.00000
      3     -10.1985      1.00000
      4      -5.4148      1.00000
      5      -0.4830      0.00000
      6       0.2548      0.00000
      7       0.2734      0.00000
      8       0.3270      0.00000
      9       0.5285      0.00000
     10       0.5577      0.00000
     11       0.8552      0.00000
     12       0.8895      0.00000
     13       0.9202      0.00000
     14       1.0200      0.00000
     15       1.0518      0.00000
     16       1.0765      0.00000
     17       1.1698      0.00000
     18       1.2026      0.00000
     19       1.4732      0.00000
     20       1.5467      0.00000
     21       1.5587      0.00000
     22       1.5613      0.00000
     23       1.6365      0.00000
     24       1.6791      0.00000

 spin component 2

 k-point   1 :       0.0000    0.0000    0.0000
  band No.  band energies     occupation 
      1     -15.9172      1.00000
      2      -9.9413      1.00000
      3      -9.9354      1.00000
      4      -2.8889      0.00000
      5      -0.4344      0.00000
      6       0.0730      0.00000
      7       0.1254      0.00000
      8       0.3586      0.00000
      9       0.4208      0.00000
     10       0.8817      0.00000
     11       0.9249      0.00000
     12       1.2437      0.00000
     13       1.2974      0.00000
     14       1.4926      0.00000
     15       1.5006      0.00000
     16       1.5887      0.00000
     17       1.7011      0.00000
     18       1.7066      0.00000
     19       1.8517      0.00000
     20       1.9718      0.00000
     21       1.9784      0.00000
     22       1.9861      0.00000
     23       1.9879      0.00000
     24       1.9891      0.00000

 k-point   2 :       0.3333    0.0000    0.0000
  band No.  band energies     occupation 
      1     -15.9172      1.00000
      2      -9.9413      1.00000
      3      -9.9354      1.00000
      4      -2.8887      0.00000
      5      -0.2388      0.00000
      6       0.2842      0.00000
      7       0.3346      0.00000
      8       0.4638      0.00000
      9       0.5856      0.00000
     10       0.6318      0.00000
     11       0.9244      0.00000
     12       0.9548      0.00000
     13       1.0180      0.00000
     14       1.0867      0.00000
     15       1.1541      0.00000
     16       1.1998      0.00000
     17       1.2326      0.00000
     18       1.2732      0.00000
     19       1.5623      0.00000
     20       1.5646      0.00000
     21       1.5884      0.00000
     22       1.6157      0.00000
     23       1.7298      0.00000
     24       1.7608      0.00000

 k-point   3 :       0.0000    0.3333    0.0000
  band No.  band energies     occupation 
      1     -15.9172      1.00000
      2      -9.9413      1.00000
      3      -9.9354      1.00000
      4      -2.8890      0.00000
      5      -0.2417      0.00000
      6       0.2839      0.00000
      7       0.3315      0.00000
      8       0.4673      0.00000
      9       0.5857      0.00000
     10       0.6495      0.00000
     11       0.9247      0.00000
     12       0.9679      0.00000
     13       1.0069      0.00000
     14       1.0903      0.00000
     15       1.1352      0.00000
     16       1.2073      0.00000
     17       1.2247      0.00000
     18       1.2731      0.00000
     19       1.5624      0.00000
     20       1.5648      0.00000
     21       1.5829      0.00000
     22       1.6151      0.00000
     23       1.7271      0.00000
     24       1.7603      0.00000

 k-point   4 :       0.3333    0.3333    0.0000
  band No.  band energies     occupation 
      1     -15.9172      1.00000
      2      -9.9413      1.00000
      3      -9.9354      1.00000
      4      -2.8887      0.00000
      5      -0.0269      0.00000
      6       0.3624      0.00000
      7       0.4050      0.00000
      8       0.7075      0.00000
      9       0.7151      0.00000
     10       0.7165      0.00000
     11       0.7589      0.00000
     12       0.7618      0.00000
     13       0.7629      0.00000
     14       0.9808      0.00000
     15       1.0093      0.00000
     16       1.0144      0.00000
     17       1.0456      0.00000
     18       1.0534      0.00000
     19       1.0587      0.00000
     20       1.4863      0.00000
     21       1.5282      0.00000
     22       1.5419      0.00000
     23       1.5508      0.00000
     24       1.5581      0.00000

 k-point   5 :      -0.3333    0.3333    0.0000
  band No.  band energies     occupation 
      1     -15.9172      1.00000
      2      -9.9413      1.00000
      3      -9.9354      1.00000
      4      -2.8887      0.00000
      5      -0.2387      0.00000
      6       0.2842      0.00000
      7       0.3348      0.00000
      8       0.4639      0.00000
      9       0.5860      0.00000
     10       0.6304      0.00000
     11       0.9244      0.00000
     12       0.9535      0.00000
     13       1.0189      0.00000
     14       1.0859      0.00000
     15       1.1576      0.00000
     16       1.1977      0.00000
     17       1.2331      0.00000
     18       1.2733      0.00000
     19       1.5626      0.00000
     20       1.5644      0.00000
     21       1.5882      0.00000
     22       1.6159      0.00000
     23       1.7295      0.00000
     24       1.7609      0.00000


--------------------------------------------------------------------------------------------------------


 soft charge-density along one line, spin component           1
         0         1         2         3         4         5         6         7         8         9
 total charge-density along one line
 
 soft charge-density along one line, spin component           2
         0         1         2         3         4         5         6         7         8         9
 total charge-density along one line
 
 pseudopotential strength for first ion, spin component:           1
 10.317  13.723   0.000   0.000   0.000   0.000   0.000   0.000
 13.723  18.252   0.000   0.000   0.000   0.000   0.000   0.000
  0.000   0.000  -4.397   0.000   0.000   8.594  -0.005   0.000
  0.000   0.000   0.000  -4.398   0.000  -0.005   8.581   0.000
  0.000   0.000   0.000   0.000  -4.397   0.000   0.000   8.596
  0.000   0.000   8.594  -0.005   0.000 -18.934   0.023   0.000
  0.000   0.000  -0.005   8.581   0.000   0.023 -18.880   0.000
  0.000   0.000   0.000   0.000   8.596   0.000   0.000 -18.942
 pseudopotential strength for first ion, spin component:           2
 10.107  13.437   0.000   0.000   0.000   0.000  -0.001   0.000
 13.437  17.864   0.000   0.001   0.000  -0.001  -0.001   0.000
  0.000   0.000  -4.365  -0.019   0.000   8.562   0.061   0.000
  0.000   0.001  -0.019  -4.410   0.000   0.061   8.706   0.001
  0.000   0.000   0.000   0.000  -4.358   0.000   0.001   8.538
  0.000  -0.001   8.562   0.061   0.000 -18.927  -0.164  -0.001
 -0.001  -0.001   0.061   8.706   0.001  -0.164 -19.318  -0.003
  0.000   0.000   0.000   0.001   8.538  -0.001  -0.003 -18.865
 total augmentation occupancy for first ion, spin component:           1
  6.279  -2.436   0.001   0.004   0.000   0.000   0.000   0.000
 -2.436   0.945  -0.001  -0.003   0.000   0.000   0.000   0.000
  0.001  -0.001   1.585  -0.222  -0.002   0.122  -0.036   0.000
  0.004  -0.003  -0.222   1.054  -0.004  -0.036   0.035  -0.001
  0.000   0.000  -0.002  -0.004   1.665   0.000  -0.001   0.136
  0.000   0.000   0.122  -0.036   0.000   0.010  -0.003   0.000
  0.000   0.000  -0.036   0.035  -0.001  -0.003   0.002   0.000
  0.000   0.000   0.000  -0.001   0.136   0.000   0.000   0.011
 total augmentation occupancy for first ion, spin component:           2
  0.272  -0.117   0.000   0.000   0.000   0.000   0.000   0.000
 -0.117   0.050   0.000  -0.001   0.000   0.000   0.000   0.000
  0.000   0.000   0.136   0.303   0.002   0.002   0.007   0.000
  0.000  -0.001   0.303   0.863   0.006   0.007   0.019   0.000
  0.000   0.000   0.002   0.006   0.027   0.000   0.000   0.000
  0.000   0.000   0.002   0.007   0.000   0.000   0.000   0.000
  0.000   0.000   0.007   0.019   0.000   0.000   0.000   0.000
  0.000   0.000   0.000   0.000   0.000   0.000   0.000   0.000


------------------------ aborting loop because EDIFF is reached ----------------------------------------


    CHARGE:  cpu time    1.54: real time    1.56
    FORLOC:  cpu time    0.07: real time    0.07
    FORNL :  cpu time    6.41: real time    6.43
    STRESS:  cpu time   20.06: real time   20.15
    FORCOR:  cpu time    1.42: real time    1.43
    FORHAR:  cpu time    0.20: real time    0.21
    MIXING:  cpu time    0.03: real time    0.03

  FORCE on cell =-STRESS in cart. coord.  units (eV):
  Direction    XX          YY          ZZ          XY          YZ          ZX
  --------------------------------------------------------------------------------------
  Alpha Z     0.05747     0.05747     0.05747
  Ewald     171.08742   160.61877  -141.69984    -0.24662   -28.87480    -0.52360
  Hartree   197.86398   194.59928   -57.34974    -0.07263    -8.88996    -0.16265
  E(xc)     -23.65676   -23.72013   -24.14178    -0.00145    -0.17592    -0.00321
  Local    -419.70440  -407.22286   138.67163     0.28573    34.27180     0.62433
  n-local   -12.18419   -12.10135   -11.53051     0.00151     0.23756     0.00477
  augment     0.07553     0.07202     0.04937     0.00000    -0.00945    -0.00020
  Kinetic    86.40817    87.63650    95.89016     0.03648     3.44337     0.05976
  Fock        0.00000     0.00000     0.00000     0.00000     0.00000     0.00000
  -------------------------------------------------------------------------------------
  Total      -0.05278    -0.06029    -0.05324     0.00302     0.00260    -0.00079
  in kB      -0.02493    -0.02848    -0.02515     0.00143     0.00123    -0.00038
  external pressure =       -0.03 kB  Pullay stress =        0.00 kB


 VOLUME and BASIS-vectors are now :
 -----------------------------------------------------------------------------
  energy-cutoff  :      520.00
  volume of cell :     3391.56
      direct lattice vectors                 reciprocal lattice vectors
    10.231375098  0.000000000  0.000000000     0.097738573  0.056429391  0.000000000
    -5.115687549  8.860630751  0.000000000     0.000000000  0.112858783  0.000000000
     0.000000000  0.000000000 37.411182405     0.000000000  0.000000000  0.026729976

  length of vectors
    10.231375098 10.231375098 37.411182405     0.112858783  0.112858783  0.026729976


 FORCES acting on ions
    electron-ion (+dipol)            ewald-force                    non-local-force                 convergence-correction
 -----------------------------------------------------------------------------------------------
   -.170E-02 0.325E-01 0.239E+00   0.118E-02 -.374E-01 -.254E+00   -.170E-03 0.544E-02 0.168E-01   0.673E-05 -.183E-05 -.231E-05
   0.341E+02 0.336E+02 -.128E+02   -.381E+02 -.376E+02 0.143E+02   0.400E+01 0.394E+01 -.147E+01   0.546E-03 0.537E-03 -.200E-03
   0.140E+02 -.447E+02 0.164E+02   -.157E+02 0.499E+02 -.183E+02   0.164E+01 -.524E+01 0.188E+01   0.226E-03 -.715E-03 0.258E-03
   -.481E+02 0.110E+02 -.385E+01   0.537E+02 -.123E+02 0.428E+01   -.564E+01 0.129E+01 -.441E+00   -.768E-03 0.176E-03 -.611E-04
 -----------------------------------------------------------------------------------------------
   0.786E-03 0.375E-02 0.778E-02   -.711E-14 -.178E-14 -.266E-14   -.250E-03 0.229E-02 -.136E-01   0.984E-05 -.450E-05 -.517E-05
 
 
 POSITION                                       TOTAL-FORCE (eV/Angst)
 -----------------------------------------------------------------------------------
     -0.00360      0.50489      0.22334        -0.000825     -0.001007      0.002962
      4.36389      8.62737      0.49797        -0.003291     -0.000700     -0.000506
     -0.31126      1.48559     37.28308         0.001058     -0.000268     -0.000891
      1.05218      0.26300      0.30580         0.003058      0.001975     -0.001565
 -----------------------------------------------------------------------------------
    total drift:                                0.000546      0.006029     -0.005816


--------------------------------------------------------------------------------------------------------



  FREE ENERGIE OF THE ION-ELECTRON SYSTEM (eV)
  ---------------------------------------------------
  free  energy   TOTEN  =       -18.16764180 eV

  energy  without entropy=      -18.16764180  energy(sigma->0) =      -18.16764180
 


--------------------------------------------------------------------------------------------------------


    POTLOK:  cpu time    2.68: real time    2.70


--------------------------------------------------------------------------------------------------------


 
 
Found    12 degrees of freedom:
 
 
        Directions for atom     1:
        --------------------------
 
              1.0000000000000000      0.0000000000000000      0.0000000000000000
              0.0000000000000000      1.0000000000000000      0.0000000000000000
              0.0000000000000000      0.0000000000000000      1.0000000000000000
 
 
        Directions for atom     2:
        --------------------------
 
              1.0000000000000000      0.0000000000000000      0.0000000000000000
              0.0000000000000000      1.0000000000000000      0.0000000000000000
              0.0000000000000000      0.0000000000000000      1.0000000000000000
 
 
        Directions for atom     3:
        --------------------------
 
              1.0000000000000000      0.0000000000000000      0.0000000000000000
              0.0000000000000000      1.0000000000000000      0.0000000000000000
              0.0000000000000000      0.0000000000000000      1.0000000000000000
 
 
        Directions for atom     4:
        --------------------------
 
              1.0000000000000000      0.0000000000000000      0.0000000000000000
              0.0000000000000000      1.0000000000000000      0.0000000000000000
              0.0000000000000000      0.0000000000000000      1.0000000000000000
 Finite differences:
   Step               POTIM =   1.000000000000000E-002
   Degrees of freedom DOF   =           12
  LATTYP: Found a hexagonal cell.
 ALAT       =    10.2313750982
 C/A-ratio  =     3.6565155755
  
  Lattice vectors:
  
 A1 = (  10.2313750981,   0.0000000000,   0.0000000000)
 A2 = (  -5.1156875490,   8.8606307507,   0.0000000000)
 A3 = (   0.0000000000,   0.0000000000,  37.4111824051)


Analysis of symmetry for initial positions (statically):
=====================================================================
 Subroutine PRICEL returns:
 Original cell was already a primitive cell.
 

 Routine SETGRP: Setting up the symmetry group for a 
 hexagonal supercell.


 Subroutine GETGRP returns: Found  1 space group operations
 (whereof  1 operations were pure point group operations)
 out of a pool of 24 trial point group operations.


The static configuration has the point symmetry C_1 .


Analysis of symmetry for dynamics (positions and initial velocities):
=====================================================================
 Subroutine PRICEL returns:
 Original cell was already a primitive cell.
 

 Routine SETGRP: Setting up the symmetry group for a 
 hexagonal supercell.


 Subroutine GETGRP returns: Found  1 space group operations
 (whereof  1 operations were pure point group operations)
 out of a pool of 24 trial point group operations.


The dynamic configuration has the point symmetry C_1 .


Analysis of magnetic symmetry:
=====================================================================

 Subroutine MAGSYM returns: Found  1 space group operations
 (whereof  1 operations were pure point group operations)
 out of a pool of  1 trial space group operations
 (whereof  1 operations were pure point group operations)
 and found also     1 'primitive' translations


The magnetic configuration has the point symmetry C_1 .
 
 KPOINTS: kpoints                                 

Automatic generation of k-mesh.
Space group operators:
 irot       det(A)        alpha          n_x          n_y          n_z        tau_x        tau_y        tau_z
    1     1.000000     0.000000     1.000000     0.000000     0.000000     0.000000     0.000000     0.000000
 
 Subroutine IBZKPT returns following result:
 ===========================================
 
 Found      5 irreducible k-points:
 
 Following reciprocal coordinates:
            Coordinates               Weight
  0.000000  0.000000  0.000000      1.000000
  0.333333  0.000000  0.000000      2.000000
  0.000000  0.333333  0.000000      2.000000
  0.333333  0.333333  0.000000      2.000000
 -0.333333  0.333333  0.000000      2.000000
 
 Following cartesian coordinates:
            Coordinates               Weight
  0.000000  0.000000  0.000000      1.000000
  0.032580  0.018810  0.000000      2.000000
  0.000000  0.037620  0.000000      2.000000
  0.032580  0.056429  0.000000      2.000000
 -0.032580  0.018810  0.000000      2.000000
 
    WAVPRE:  cpu time    0.15: real time    0.15
 FEWALD executed in parallel
    FEWALD:  cpu time    0.00: real time    0.00
    ORTHCH:  cpu time    0.70: real time    0.71
     LOOP+:  cpu time  199.61: real time  234.36


----------------------------------------- Iteration    2(   1)  ---------------------------------------


    POTLOK:  cpu time    1.67: real time    1.67
    SETDIJ:  cpu time    1.04: real time    1.04
     EDDAV:  cpu time    5.92: real time    5.94
       DOS:  cpu time    0.00: real time    0.00
    CHARGE:  cpu time    1.58: real time    1.58
    MIXING:  cpu time    0.06: real time    0.07
    --------------------------------------------
      LOOP:  cpu time   10.26: real time   10.37

 eigenvalue-minimisations  :   480
 total energy-change (2. order) : 0.3385397E-02  (-0.2480458E-01)
 number of electron       7.0000000 magnetization       1.0000000
 augmentation part        0.1518696 magnetization       0.0453192

 Broyden mixing:
  rms(total) = 0.13825E-01    rms(broyden)= 0.13796E-01
  rms(prec ) = 0.13906E-01
  weight for this iteration     100.00

 Free energy of the ion-electron system (eV)
  ---------------------------------------------------
  alpha Z        PSCENC =         0.05747090
  Ewald energy   TEWEN  =       190.00978256
  -1/2 Hartree   DENC   =      -335.11596825
  -exchange  EXHF       =         0.00000000
  -V(xc)+E(xc)   XCENC  =        21.46551936
  PAW double counting   =       368.03029629     -368.75501668
  entropy T*S    EENTRO =         0.00000000
  eigenvalues    EBANDS =       -78.46614618
  atomic energy  EATOM  =       184.60980595
  ---------------------------------------------------
  free energy    TOTEN  =       -18.16425605 eV

  energy without entropy =      -18.16425605  energy(sigma->0) =      -18.16425605


--------------------------------------------------------------------------------------------------------




----------------------------------------- Iteration    2(   2)  ---------------------------------------


    POTLOK:  cpu time    1.65: real time    1.66
    SETDIJ:  cpu time    1.04: real time    1.04
     EDDAV:  cpu time    8.67: real time    8.71
       DOS:  cpu time    0.00: real time    0.00
    CHARGE:  cpu time    1.58: real time    1.59
    MIXING:  cpu time    0.06: real time    0.06
    --------------------------------------------
      LOOP:  cpu time   13.01: real time   13.84

 eigenvalue-minimisations  :   768
 total energy-change (2. order) :-0.5584587E-03  (-0.2656119E-03)
 number of electron       7.0000000 magnetization       1.0000000
 augmentation part        0.1517938 magnetization       0.0453230

 Broyden mixing:
  rms(total) = 0.91880E-02    rms(broyden)= 0.91855E-02
  rms(prec ) = 0.93171E-02
  weight for this iteration     100.00

 eigenvalues of (default mixing * dielectric matrix)
  average eigenvalue GAMMA=   1.3780
  1.3780

 Free energy of the ion-electron system (eV)
  ---------------------------------------------------
  alpha Z        PSCENC =         0.05747090
  Ewald energy   TEWEN  =       190.00978256
  -1/2 Hartree   DENC   =      -335.11825855
  -exchange  EXHF       =         0.00000000
  -V(xc)+E(xc)   XCENC  =        21.46568919
  PAW double counting   =       368.13644194     -368.86125183
  entropy T*S    EENTRO =         0.00000000
  eigenvalues    EBANDS =       -78.46449467
  atomic energy  EATOM  =       184.60980595
  ---------------------------------------------------
  free energy    TOTEN  =       -18.16481451 eV

  energy without entropy =      -18.16481451  energy(sigma->0) =      -18.16481451


--------------------------------------------------------------------------------------------------------




----------------------------------------- Iteration    2(   3)  ---------------------------------------


    POTLOK:  cpu time    1.66: real time    1.66
    SETDIJ:  cpu time    1.02: real time    1.04
     EDDAV:  cpu time    7.51: real time    7.53
       DOS:  cpu time    0.00: real time    0.00
    CHARGE:  cpu time    1.57: real time    1.58
    MIXING:  cpu time    0.07: real time    0.07
    --------------------------------------------
      LOOP:  cpu time   11.83: real time   11.89

 eigenvalue-minimisations  :   648
 total energy-change (2. order) : 0.4851581E-04  (-0.1650373E-04)
 number of electron       7.0000000 magnetization       1.0000000
 augmentation part        0.1517957 magnetization       0.0453213

 Broyden mixing:
  rms(total) = 0.57202E-02    rms(broyden)= 0.57200E-02
  rms(prec ) = 0.58004E-02
  weight for this iteration     100.00

 eigenvalues of (default mixing * dielectric matrix)
  average eigenvalue GAMMA=   1.9151
  1.3293  2.5009

 Free energy of the ion-electron system (eV)
  ---------------------------------------------------
  alpha Z        PSCENC =         0.05747090
  Ewald energy   TEWEN  =       190.00978256
  -1/2 Hartree   DENC   =      -335.11722434
  -exchange  EXHF       =         0.00000000
  -V(xc)+E(xc)   XCENC  =        21.46562934
  PAW double counting   =       368.12996594     -368.85475099
  entropy T*S    EENTRO =         0.00000000
  eigenvalues    EBANDS =       -78.46544534
  atomic energy  EATOM  =       184.60980595
  ---------------------------------------------------
  free energy    TOTEN  =       -18.16476599 eV

  energy without entropy =      -18.16476599  energy(sigma->0) =      -18.16476599


--------------------------------------------------------------------------------------------------------




----------------------------------------- Iteration    2(   4)  ---------------------------------------


    POTLOK:  cpu time    1.65: real time    1.67
    SETDIJ:  cpu time    1.03: real time    1.04
     EDDAV:  cpu time    8.64: real time    8.67
       DOS:  cpu time    0.00: real time    0.00
    CHARGE:  cpu time    1.57: real time    1.57
    MIXING:  cpu time    0.07: real time    0.07
    --------------------------------------------
      LOOP:  cpu time   12.97: real time   13.03

 eigenvalue-minimisations  :   768
 total energy-change (2. order) : 0.1656940E-04  (-0.1802324E-04)
 number of electron       7.0000000 magnetization       1.0000000
 augmentation part        0.1517944 magnetization       0.0453238

 Broyden mixing:
  rms(total) = 0.18339E-02    rms(broyden)= 0.18338E-02
  rms(prec ) = 0.18523E-02
  weight for this iteration     100.00

 eigenvalues of (default mixing * dielectric matrix)
  average eigenvalue GAMMA=   2.1024
  3.8370  1.0661  1.4041

 Free energy of the ion-electron system (eV)
  ---------------------------------------------------
  alpha Z        PSCENC =         0.05747090
  Ewald energy   TEWEN  =       190.00978256
  -1/2 Hartree   DENC   =      -335.11599546
  -exchange  EXHF       =         0.00000000
  -V(xc)+E(xc)   XCENC  =        21.46556402
  PAW double counting   =       368.08154102     -368.80630594
  entropy T*S    EENTRO =         0.00000000
[...]
 total charge-density along one line
 
 soft charge-density along one line, spin component           2
         0         1         2         3         4         5         6         7         8         9
 total charge-density along one line
 
 pseudopotential strength for first ion, spin component:           1
 10.317  13.723   0.000   0.000   0.000   0.000   0.000   0.000
 13.723  18.252   0.000   0.000   0.000   0.000   0.000   0.000
  0.000   0.000  -4.397   0.000   0.000   8.594  -0.005   0.000
  0.000   0.000   0.000  -4.398   0.000  -0.005   8.581   0.000
  0.000   0.000   0.000   0.000  -4.397   0.000   0.000   8.596
  0.000   0.000   8.594  -0.005   0.000 -18.934   0.022   0.000
  0.000   0.000  -0.005   8.581   0.000   0.022 -18.880   0.001
  0.000   0.000   0.000   0.000   8.596   0.000   0.001 -18.942
 pseudopotential strength for first ion, spin component:           2
 10.107  13.437   0.000   0.000   0.000   0.000   0.001   0.000
 13.437  17.865   0.000   0.000   0.000   0.000   0.001   0.000
  0.000   0.000  -4.365  -0.019   0.000   8.561   0.061   0.001
  0.000   0.000  -0.019  -4.410  -0.001   0.061   8.706   0.002
  0.000   0.000   0.000  -0.001  -4.358   0.001   0.002   8.538
  0.000   0.000   8.561   0.061   0.001 -18.927  -0.163  -0.002
  0.001   0.001   0.061   8.706   0.002  -0.163 -19.318  -0.006
  0.000   0.000   0.001   0.002   8.538  -0.002  -0.006 -18.865
 total augmentation occupancy for first ion, spin component:           1
  6.282  -2.438   0.000  -0.003   0.002   0.000   0.000   0.000
 -2.438   0.946   0.000   0.002  -0.001   0.000   0.000   0.000
  0.000   0.000   1.585  -0.221  -0.003   0.123  -0.036   0.000
 -0.003   0.002  -0.221   1.053  -0.008  -0.036   0.035  -0.001
  0.002  -0.001  -0.003  -0.008   1.666   0.000  -0.001   0.136
  0.000   0.000   0.123  -0.036   0.000   0.010  -0.003   0.000
  0.000   0.000  -0.036   0.035  -0.001  -0.003   0.002   0.000
  0.000   0.000   0.000  -0.001   0.136   0.000   0.000   0.011
 total augmentation occupancy for first ion, spin component:           2
  0.272  -0.117   0.000   0.000   0.000   0.000   0.000   0.000
 -0.117   0.050   0.000   0.001   0.000   0.000   0.000   0.000
  0.000   0.000   0.136   0.302   0.004   0.002   0.007   0.000
  0.000   0.001   0.302   0.864   0.011   0.007   0.019   0.000
  0.000   0.000   0.004   0.011   0.027   0.000   0.000   0.000
  0.000   0.000   0.002   0.007   0.000   0.000   0.000   0.000
  0.000   0.000   0.007   0.019   0.000   0.000   0.000   0.000
  0.000   0.000   0.000   0.000   0.000   0.000   0.000   0.000


------------------------ aborting loop because EDIFF is reached ----------------------------------------


    CHARGE:  cpu time    1.54: real time    1.55
    FORLOC:  cpu time    0.05: real time    0.05
    FORNL :  cpu time    6.53: real time    6.55
    STRESS:  cpu time   20.39: real time   20.46
    FORCOR:  cpu time    1.43: real time    1.43
    FORHAR:  cpu time    0.21: real time    0.21
    MIXING:  cpu time    0.02: real time    0.03

  FORCE on cell =-STRESS in cart. coord.  units (eV):
  Direction    XX          YY          ZZ          XY          YZ          ZX
  --------------------------------------------------------------------------------------
  Alpha Z     0.05747     0.05747     0.05747
  Ewald     171.19004   160.63578  -141.77908    -0.28562   -28.75697    -1.04834
  Hartree   197.88839   194.62433   -57.36117    -0.09096    -8.85580    -0.32163
  E(xc)     -23.65885   -23.72227   -24.14451    -0.00167    -0.17521    -0.00643
  Local    -419.80251  -407.27136   138.74865     0.34442    34.13573     1.24198
  n-local   -12.18965   -12.10658   -11.53349     0.00474     0.23716     0.00802
  augment     0.07519     0.07208     0.04930    -0.00018    -0.00945    -0.00031
  Kinetic    86.40847    87.65837    95.91131     0.01508     3.42474     0.13164
  Fock        0.00000     0.00000     0.00000     0.00000     0.00000     0.00000
  -------------------------------------------------------------------------------------
  Total      -0.03146    -0.05217    -0.05153    -0.01420     0.00021     0.00493
  in kB      -0.01486    -0.02465    -0.02434    -0.00671     0.00010     0.00233
  external pressure =       -0.02 kB  Pullay stress =        0.00 kB


 VOLUME and BASIS-vectors are now :
 -----------------------------------------------------------------------------
  energy-cutoff  :      520.00
  volume of cell :     3391.56
      direct lattice vectors                 reciprocal lattice vectors
    10.231375098  0.000000000  0.000000000     0.097738573  0.056429391  0.000000000
    -5.115687549  8.860630751  0.000000000     0.000000000  0.112858783  0.000000000
     0.000000000  0.000000000 37.411182405     0.000000000  0.000000000  0.026729976

  length of vectors
    10.231375098 10.231375098 37.411182405     0.112858783  0.112858783  0.026729976


 FORCES acting on ions
    electron-ion (+dipol)            ewald-force                    non-local-force                 convergence-correction
 -----------------------------------------------------------------------------------------------
   0.783E-01 0.196E-01 -.183E+00   -.924E-01 -.160E-01 0.192E+00   -.557E-02 0.140E-01 -.236E-01   -.249E-03 0.133E-04 0.143E-02
   0.341E+02 0.336E+02 -.129E+02   -.381E+02 -.376E+02 0.143E+02   0.400E+01 0.394E+01 -.147E+01   -.351E-04 0.383E-04 0.269E-03
   0.140E+02 -.447E+02 0.164E+02   -.157E+02 0.499E+02 -.183E+02   0.164E+01 -.524E+01 0.188E+01   -.720E-04 0.117E-03 0.238E-03
   -.482E+02 0.110E+02 -.340E+01   0.538E+02 -.123E+02 0.380E+01   -.565E+01 0.129E+01 -.387E+00   0.302E-04 -.269E-04 0.117E-03
 -----------------------------------------------------------------------------------------------
   0.222E-01 -.433E-02 -.765E-02   0.000E+00 0.178E-14 -.888E-15   -.213E-01 0.102E-01 -.448E-03   -.326E-03 0.142E-03 0.205E-02
 
 
 POSITION                                       TOTAL-FORCE (eV/Angst)
 -----------------------------------------------------------------------------------
     -0.00360      0.50489      0.22334        -0.020062      0.016149     -0.011751
      4.36389      8.62737      0.49797         0.003273     -0.001873      0.002766
     -0.31126      1.48559     37.28308        -0.006517      0.000606      0.001776
      1.05218      0.26300      0.29580         0.023306     -0.014882      0.007210
 -----------------------------------------------------------------------------------
    total drift:                                0.000533      0.005979     -0.006047


--------------------------------------------------------------------------------------------------------



  FREE ENERGIE OF THE ION-ELECTRON SYSTEM (eV)
  ---------------------------------------------------
  free  energy   TOTEN  =       -18.16762837 eV

  energy  without entropy=      -18.16762837  energy(sigma->0) =      -18.16762837
 
 d Force = 0.3763182E-04[-0.144E-03, 0.219E-03]  d Energy = 0.6305918E-04-0.254E-04
 d Force =-0.8564603E-01[-0.759E-01,-0.954E-01]  d Ewald  =-0.8566544E-01 0.194E-04


--------------------------------------------------------------------------------------------------------


    POTLOK:  cpu time    2.68: real time    2.69


--------------------------------------------------------------------------------------------------------


 Finite differences progress:
  Degree of freedom:  12/ 12
  Displacement:        2/  2
  Total:              24/ 24


--------------------------------------------------------------------------------------------------------


 INTERNAL STRAIN TENSORS FROM DISPLACED ATOMS
 ============================================

 INTERNAL STRAIN TENSOR FOR ION    1 for displacements in x,y,z  (eV/Angst):
          X           Y           Z          XY          YZ          ZX
  --------------------------------------------------------------------------------
  x    17.57263   -15.55998    -2.07764   -14.28573     5.73249     4.98764
  y   -14.28097    12.57000     1.60850   -15.46134    -4.38290     5.74363
  z     4.92412    -4.41881    -0.70579     5.71887     1.60273    -2.14834

 INTERNAL STRAIN TENSOR FOR ION    2 for displacements in x,y,z  (eV/Angst):
          X           Y           Z          XY          YZ          ZX
  --------------------------------------------------------------------------------
  x    15.09555     9.28604     1.30929    12.64918    -3.47468    -4.72274
  y     9.32858    13.97935     1.87171    12.21906    -5.20595    -4.52580
  z    -3.51604    -5.16827    -0.70749    -4.53491     1.90412     1.66662

 INTERNAL STRAIN TENSOR FOR ION    3 for displacements in x,y,z  (eV/Angst):
          X           Y           Z          XY          YZ          ZX
  --------------------------------------------------------------------------------
  x     2.75016     6.89893     0.85870    -5.85684    -2.45876     2.08478
  y    -1.51445   -28.39804    -3.62198     8.10846    10.20945    -2.92002
  z     0.53827    10.20844     1.29466    -2.88008    -3.65000     1.02937

 INTERNAL STRAIN TENSOR FOR ION    4 for displacements in x,y,z  (eV/Angst):
          X           Y           Z          XY          YZ          ZX
  --------------------------------------------------------------------------------
  x   -35.27566    -0.78478    -0.04308     7.36329     0.26801    -2.48995
  y     6.28647     1.77473     0.20712    -4.93730    -0.62304     1.76527
  z    -2.08379    -0.64097    -0.08448     1.75930     0.22550    -0.60982


--------------------------------------------------------------------------------------------------------


 
 Eigenvectors and eigenvalues of the dynamical matrix
 ----------------------------------------------------
 
 
   1 f  =   96.925146 THz   608.998653 2PiTHz 3233.074760 cm-1   400.850326 meV
             X         Y         Z           dx          dy          dz
     -0.003602  0.504889  0.223336     0.307228   -0.106952    0.036930  
      4.363887  8.627371  0.497969    -0.198060   -0.216806    0.080338  
     -0.311264  1.485590 37.283081    -0.117310    0.418863   -0.150244  
      1.052185  0.263004  0.305804    -0.746028    0.168783   -0.057408  
 
   2 f  =   96.891940 THz   608.790012 2PiTHz 3231.967123 cm-1   400.712997 meV
             X         Y         Z           dx          dy          dz
     -0.003602  0.504889  0.223336    -0.113298   -0.287519    0.105190  
      4.363887  8.627371  0.497969     0.493096    0.476702   -0.177278  
     -0.311264  1.485590 37.283081    -0.184995    0.556136   -0.199191  
      1.052185  0.263004  0.305804     0.083634   -0.035708    0.012605  
 
   3 f  =   91.540106 THz   575.163447 2PiTHz 3053.449160 cm-1   378.579582 meV
             X         Y         Z           dx          dy          dz
     -0.003602  0.504889  0.223336     0.000570   -0.000229   -0.000629  
      4.363887  8.627371  0.497969    -0.398209   -0.392991    0.145878  
     -0.311264  1.485590 37.283081    -0.163553    0.521710   -0.187139  
      1.052185  0.263004  0.305804     0.559873   -0.128124    0.043366  
 
   4 f  =   40.815911 THz   256.453930 2PiTHz 1361.472189 cm-1   168.801099 meV
             X         Y         Z           dx          dy          dz
     -0.003602  0.504889  0.223336    -0.292457    0.095203   -0.033931  
      4.363887  8.627371  0.497969     0.490639   -0.477977    0.169340  
     -0.311264  1.485590 37.283081     0.590259    0.202326   -0.077431  
      1.052185  0.263004  0.305804    -0.086697   -0.055221    0.022059  
 
   5 f  =   40.756495 THz   256.080611 2PiTHz 1359.490297 cm-1   168.555375 meV
             X         Y         Z           dx          dy          dz
     -0.003602  0.504889  0.223336    -0.102548   -0.270140    0.100175  
      4.363887  8.627371  0.497969    -0.274221    0.163416   -0.058634  
     -0.311264  1.485590 37.283081     0.449290    0.069375   -0.027752  
      1.052185  0.263004  0.305804     0.173693    0.705442   -0.256653  
 
   6 f  =   16.546118 THz   103.962328 2PiTHz  551.919083 cm-1    68.429270 meV
             X         Y         Z           dx          dy          dz
     -0.003602  0.504889  0.223336     0.005430    0.158397    0.437649  
      4.363887  8.627371  0.497969    -0.002628   -0.175894   -0.482161  
     -0.311264  1.485590 37.283081    -0.002033   -0.172460   -0.478240  
      1.052185  0.263004  0.305804    -0.001941   -0.175822   -0.480148  
 
   7 f  =    1.542586 THz     9.692353 2PiTHz   51.455124 cm-1     6.379625 meV
             X         Y         Z           dx          dy          dz
     -0.003602  0.504889  0.223336     0.034127   -0.065491   -0.076653  
      4.363887  8.627371  0.497969     0.070496   -0.283318   -0.568209  
     -0.311264  1.485590 37.283081    -0.071012    0.214572    0.700300  
      1.052185  0.263004  0.305804     0.029936    0.009889   -0.195122  
 
   8 f  =    1.150527 THz     7.228975 2PiTHz   38.377449 cm-1     4.758199 meV
             X         Y         Z           dx          dy          dz
     -0.003602  0.504889  0.223336     0.061095    0.014120    0.016669  
      4.363887  8.627371  0.497969     0.168782   -0.291444   -0.377871  
     -0.311264  1.485590 37.283081    -0.190236   -0.151045   -0.245806  
      1.052185  0.263004  0.305804     0.071503    0.454816    0.638891  
 
   9 f  =    0.469117 THz     2.947547 2PiTHz   15.648047 cm-1     1.940111 meV
             X         Y         Z           dx          dy          dz
     -0.003602  0.504889  0.223336    -0.265422    0.372410   -0.047431  
      4.363887  8.627371  0.497969     0.257577   -0.115769    0.297881  
     -0.311264  1.485590 37.283081    -0.517657   -0.009294    0.046645  
      1.052185  0.263004  0.305804     0.029938    0.447010   -0.386246  
 
  10 f/i=    0.152072 THz     0.955494 2PiTHz    5.072563 cm-1     0.628918 meV
             X         Y         Z           dx          dy          dz
     -0.003602  0.504889  0.223336     0.490832    0.621875   -0.382254  
      4.363887  8.627371  0.497969     0.069895    0.233788   -0.160658  
     -0.311264  1.485590 37.283081     0.240190    0.209077   -0.113390  
      1.052185  0.263004  0.305804     0.118682    0.094182   -0.060553  
 
  11 f/i=    0.359969 THz     2.261753 2PiTHz   12.007281 cm-1     1.488714 meV
             X         Y         Z           dx          dy          dz
     -0.003602  0.504889  0.223336     0.684096   -0.224066    0.370584  
      4.363887  8.627371  0.497969     0.350400   -0.145720    0.304351  
     -0.311264  1.485590 37.283081     0.003907   -0.115768    0.134699  
      1.052185  0.263004  0.305804     0.245868    0.072564   -0.102725  
 
  12 f/i=    0.400440 THz     2.516041 2PiTHz   13.357254 cm-1     1.656089 meV
             X         Y         Z           dx          dy          dz
     -0.003602  0.504889  0.223336     0.111572   -0.467603   -0.702136  
      4.363887  8.627371  0.497969     0.125139   -0.175214   -0.058511  
     -0.311264  1.485590 37.283081    -0.089924   -0.203805   -0.288500  
      1.052185  0.263004  0.305804     0.062113   -0.036087   -0.296826  
 

 ELASTIC MODULI CONTR FROM IONIC RELAXATION (kBar)
 Direction    XX          YY          ZZ          XY          YZ          ZX
 --------------------------------------------------------------------------------
 XX         -24.0088     -4.3714     -0.1048      0.0281      1.4805      0.6049
 YY          -4.3714    -18.4241     -2.6947      0.0793      6.6911     -0.2483
 ZZ          -0.1048     -2.6947     -0.8800     -0.0056      1.0103     -0.4581
 XY           0.0281      0.0793     -0.0056     -7.9715      0.0398      2.9294
 YZ           1.4805      6.6911      1.0103      0.0398     -2.4758      0.1196
 ZX           0.6049     -0.2483     -0.4581      2.9294      0.1196     -1.4835
 --------------------------------------------------------------------------------



--------------------------------------------------------------------------------------------------------


  LATTYP: Found a hexagonal cell.
 ALAT       =    10.2313750982
 C/A-ratio  =     3.6565155755
  
  Lattice vectors:
  
 A1 = (  10.2313750981,   0.0000000000,   0.0000000000)
 A2 = (  -5.1156875490,   8.8606307507,   0.0000000000)
 A3 = (   0.0000000000,   0.0000000000,  37.4111824051)


Analysis of symmetry for initial positions (statically):
=====================================================================
 Subroutine PRICEL returns:
 Original cell was already a primitive cell.
 

 Routine SETGRP: Setting up the symmetry group for a 
 hexagonal supercell.


 Subroutine GETGRP returns: Found  1 space group operations
 (whereof  1 operations were pure point group operations)
 out of a pool of 24 trial point group operations.


The static configuration has the point symmetry C_1 .


Analysis of symmetry for dynamics (positions and initial velocities):
=====================================================================
 Subroutine PRICEL returns:
 Original cell was already a primitive cell.
 

 Routine SETGRP: Setting up the symmetry group for a 
 hexagonal supercell.


 Subroutine GETGRP returns: Found  1 space group operations
 (whereof  1 operations were pure point group operations)
 out of a pool of 24 trial point group operations.


The dynamic configuration has the point symmetry C_1 .


Analysis of magnetic symmetry:
=====================================================================

 Subroutine MAGSYM returns: Found  1 space group operations
 (whereof  1 operations were pure point group operations)
 out of a pool of  1 trial space group operations
 (whereof  1 operations were pure point group operations)
 and found also     1 'primitive' translations


The magnetic configuration has the point symmetry C_1 .
 
 KPOINTS: kpoints                                 

Automatic generation of k-mesh.
Space group operators:
 irot       det(A)        alpha          n_x          n_y          n_z        tau_x        tau_y        tau_z
    1     1.000000     0.000000     1.000000     0.000000     0.000000     0.000000     0.000000     0.000000
 
 Subroutine IBZKPT returns following result:
 ===========================================
 
 Found      5 irreducible k-points:
 
 Following reciprocal coordinates:
            Coordinates               Weight
  0.000000  0.000000  0.000000      1.000000
  0.333333  0.000000  0.000000      2.000000
  0.000000  0.333333  0.000000      2.000000
  0.333333  0.333333  0.000000      2.000000
 -0.333333  0.333333  0.000000      2.000000
 
 Following cartesian coordinates:
            Coordinates               Weight
  0.000000  0.000000  0.000000      1.000000
  0.032580  0.018810  0.000000      2.000000
  0.000000  0.037620  0.000000      2.000000
  0.032580  0.056429  0.000000      2.000000
 -0.032580  0.018810  0.000000      2.000000
 
     LOOP+:  cpu time  132.49: real time  134.98
    4ORBIT:  cpu time    0.00: real time    0.00

 total amount of memory used by VASP on root node   337131. kBytes
========================================================================

   base      :      30000. kBytes
   nonlr-proj:        944. kBytes
   fftplans  :      97661. kBytes
   grid      :     193884. kBytes
   one-center:         24. kBytes
   wavefun   :      14618. kBytes
 
  
  
 General timing and accounting informations for this job:
 ========================================================
  
                  Total CPU time used (sec):     3399.301
                            User time (sec):     3159.928
                          System time (sec):      239.374
                         Elapsed time (sec):     3726.138
  
                   Maximum memory used (kb):      508476.
                   Average memory used (kb):           0.
  
                          Minor page faults:     22329064
                          Major page faults:            0
                 Voluntary context switches:       242020
