       N       E                     dE             d eps       ncg     rms          rms(c)
DAV:   1     0.439235450005E+02    0.43924E+02   -0.12402E+03   480   0.142E+02
DAV:   2    -0.165079642494E+02   -0.60432E+02   -0.58401E+02   672   0.365E+01
DAV:   3    -0.271841735571E+02   -0.10676E+02   -0.10676E+02   480   0.193E+01
DAV:   4    -0.275957556858E+02   -0.41158E+00   -0.41158E+00   624   0.466E+00
DAV:   5    -0.276007550705E+02   -0.49994E-02   -0.49994E-02   792   0.453E-01    0.875E+00
DAV:   6    -0.253141480268E+02    0.22866E+01   -0.35716E+00   768   0.352E+00    0.583E+00
DAV:   7    -0.242214582198E+02    0.10927E+01   -0.39807E+00   816   0.357E+00    0.342E+00
DAV:   8    -0.240446048521E+02    0.17685E+00   -0.24629E-01   912   0.113E+00    0.411E-01
DAV:   9    -0.240420327017E+02    0.25722E-02   -0.10728E-02   648   0.184E-01    0.184E-01
DAV:  10    -0.240422241111E+02   -0.19141E-03   -0.70300E-04   816   0.668E-02    0.878E-02
DAV:  11    -0.240421044902E+02    0.11962E-03   -0.20666E-04   720   0.338E-02    0.126E-02
DAV:  12    -0.240421070263E+02   -0.25361E-05   -0.29897E-06   792   0.378E-03    0.869E-03
DAV:  13    -0.240421061962E+02    0.83016E-06   -0.89588E-06   552   0.509E-03
   1 F= -.24042106E+02 E0= -.24042106E+02  d E =-.750310E-11  mag=     0.0000
 Found    15 degrees of freedom:
       N       E                     dE             d eps       ncg     rms          rms(c)
DAV:   1    -0.240396574093E+02    0.24496E-02   -0.25107E-01   480   0.155E+00    0.987E-02
DAV:   2    -0.240397529556E+02   -0.95546E-04   -0.25237E-03   720   0.157E-01    0.887E-02
DAV:   3    -0.240396193847E+02    0.13357E-03   -0.31934E-04   648   0.513E-02    0.424E-02
DAV:   4    -0.240396202244E+02   -0.83974E-06   -0.15228E-04   720   0.363E-02    0.118E-02
DAV:   5    -0.240396213873E+02   -0.11629E-05   -0.30210E-05   672   0.152E-02    0.348E-03
DAV:   6    -0.240396222546E+02   -0.86728E-06   -0.95006E-07   792   0.319E-03    0.227E-03
DAV:   7    -0.240396222678E+02   -0.13194E-07   -0.11217E-07   552   0.110E-03    0.124E-03
DAV:   8    -0.240396223220E+02   -0.54160E-07   -0.43059E-08   672   0.693E-04
   2 F= -.24039622E+02 E0= -.24039622E+02  d E =-.161148E-11  mag=     0.0000
       N       E                     dE             d eps       ncg     rms          rms(c)
DAV:   1    -0.240400199225E+02   -0.39765E-03   -0.10069E+00   480   0.315E+00    0.203E-01
DAV:   2    -0.240401300057E+02   -0.11008E-03   -0.74236E-03   816   0.246E-01    0.176E-01
DAV:   3    -0.240395601533E+02    0.56985E-03   -0.26691E-03   600   0.145E-01    0.446E-02
DAV:   4    -0.240396038108E+02   -0.43657E-04   -0.21721E-04   816   0.434E-02    0.223E-02
DAV:   5    -0.240395937883E+02    0.10023E-04   -0.50245E-05   768   0.182E-02    0.973E-03
DAV:   6    -0.240395954270E+02   -0.16388E-05   -0.84589E-06   624   0.799E-03    0.325E-03
DAV:   7    -0.240395957371E+02   -0.31005E-06   -0.10962E-06   720   0.296E-03    0.132E-03
DAV:   8    -0.240395957500E+02   -0.12900E-07   -0.58867E-08   720   0.708E-04
   3 F= -.24039596E+02 E0= -.24039596E+02  d E =-.967114E-12  mag=     0.0000
       N       E                     dE             d eps       ncg     rms          rms(c)
DAV:   1    -0.240397967243E+02   -0.20099E-03   -0.50253E-01   480   0.220E+00    0.143E-01
DAV:   2    -0.240398934417E+02   -0.96717E-04   -0.41830E-03   624   0.191E-01    0.124E-01
DAV:   3    -0.240396145238E+02    0.27892E-03   -0.10852E-03   624   0.924E-02    0.399E-02
DAV:   4    -0.240396372682E+02   -0.22744E-04   -0.15845E-04   768   0.364E-02    0.162E-02
DAV:   5    -0.240396346421E+02    0.26261E-05   -0.28635E-05   624   0.142E-02    0.792E-03
DAV:   6    -0.240396364302E+02   -0.17881E-05   -0.32226E-06   672   0.496E-03    0.285E-03
DAV:   7    -0.240396365008E+02   -0.70657E-07   -0.62812E-07   696   0.241E-03    0.103E-03
DAV:   8    -0.240396364986E+02    0.21897E-08   -0.10971E-07   768   0.869E-04
   4 F= -.24039636E+02 E0= -.24039636E+02  d E =-.250418E-11  mag=     0.0000
       N       E                     dE             d eps       ncg     rms          rms(c)
DAV:   1    -0.240401956979E+02   -0.55920E-03   -0.10091E+00   480   0.313E+00    0.210E-01
DAV:   2    -0.240400755561E+02    0.12014E-03   -0.55864E-03   864   0.222E-01    0.174E-01
DAV:   3    -0.240395466769E+02    0.52888E-03   -0.33208E-03   720   0.158E-01    0.336E-02
DAV:   4    -0.240395683247E+02   -0.21648E-04   -0.14777E-04   792   0.344E-02    0.220E-02
DAV:   5    -0.240395578897E+02    0.10435E-04   -0.36064E-05   720   0.151E-02    0.120E-02
DAV:   6    -0.240395599946E+02   -0.21048E-05   -0.10649E-05   648   0.843E-03    0.293E-03
DAV:   7    -0.240395601044E+02   -0.10987E-06   -0.11253E-06   912   0.283E-03    0.103E-03
DAV:   8    -0.240395601056E+02   -0.12000E-08   -0.75931E-09   576   0.329E-04
   5 F= -.24039560E+02 E0= -.24039560E+02  d E =-.527437E-12  mag=     0.0000
       N       E                     dE             d eps       ncg     rms          rms(c)
DAV:   1    -0.240397686434E+02   -0.20854E-03   -0.50328E-01   480   0.226E+00    0.142E-01
DAV:   2    -0.240398782322E+02   -0.10959E-03   -0.43607E-03   744   0.204E-01    0.125E-01
DAV:   3    -0.240395991231E+02    0.27911E-03   -0.11111E-03   816   0.966E-02    0.409E-02
DAV:   4    -0.240396203424E+02   -0.21219E-04   -0.13142E-04   672   0.363E-02    0.166E-02
DAV:   5    -0.240396207502E+02   -0.40777E-06   -0.31470E-05   720   0.152E-02    0.550E-03
DAV:   6    -0.240396218386E+02   -0.10884E-05   -0.18708E-06   672   0.422E-03    0.278E-03
DAV:   7    -0.240396217927E+02    0.45950E-07   -0.38959E-07   816   0.195E-03    0.103E-03
DAV:   8    -0.240396218198E+02   -0.27158E-07   -0.54681E-08   600   0.734E-04
   6 F= -.24039622E+02 E0= -.24039622E+02  d E =-.140517E-11  mag=     0.0000
       N       E                     dE             d eps       ncg     rms          rms(c)
DAV:   1    -0.240403582415E+02   -0.73645E-03   -0.10099E+00   480   0.316E+00    0.212E-01
DAV:   2    -0.240401109329E+02    0.24731E-03   -0.46448E-03   768   0.221E-01    0.173E-01
DAV:   3    -0.240396999810E+02    0.41095E-03   -0.48888E-03   672   0.193E-01    0.351E-02
DAV:   4    -0.240396242031E+02    0.75778E-04   -0.32773E-04   768   0.535E-02    0.217E-02
DAV:   5    -0.240396193195E+02    0.48836E-05   -0.32262E-05   672   0.160E-02    0.113E-02
DAV:   6    -0.240396195410E+02   -0.22158E-06   -0.19743E-05   744   0.118E-02    0.276E-03
DAV:   7    -0.240396198565E+02   -0.31545E-06   -0.20745E-06   696   0.395E-03    0.112E-03
DAV:   8    -0.240396198613E+02   -0.48509E-08   -0.41495E-08   720   0.561E-04
   7 F= -.24039620E+02 E0= -.24039620E+02  d E =-.133554E-11  mag=     0.0000
       N       E                     dE             d eps       ncg     rms          rms(c)
DAV:   1    -0.240412337668E+02   -0.16139E-02   -0.29287E-01   480   0.174E+00    0.132E-01
DAV:   2    -0.240412205903E+02    0.13177E-04   -0.26034E-03   864   0.152E-01    0.112E-01
DAV:   3    -0.240410274451E+02    0.19315E-03   -0.93461E-04   672   0.779E-02    0.393E-02
DAV:   4    -0.240410345415E+02   -0.70964E-05   -0.63998E-05   816   0.223E-02    0.238E-02
DAV:   5    -0.240410367183E+02   -0.21768E-05   -0.33065E-05   768   0.115E-02    0.110E-02
DAV:   6    -0.240410399775E+02   -0.32592E-05   -0.50466E-06   624   0.594E-03    0.424E-03
DAV:   7    -0.240410397269E+02    0.25063E-06   -0.26867E-06   720   0.473E-03    0.148E-03
DAV:   8    -0.240410397617E+02   -0.34826E-07   -0.14432E-07   768   0.114E-03
   8 F= -.24041040E+02 E0= -.24041040E+02  d E =-.182883E-10  mag=     0.0000
       N       E                     dE             d eps       ncg     rms          rms(c)
DAV:   1    -0.240416107475E+02   -0.57102E-03   -0.16295E-01   480   0.112E+00    0.179E-01
DAV:   2    -0.240412890623E+02    0.32169E-03   -0.11245E-03   816   0.908E-02    0.135E-01
DAV:   3    -0.240411126349E+02    0.17643E-03   -0.21484E-03   672   0.930E-02    0.504E-02
DAV:   4    -0.240410787050E+02    0.33930E-04   -0.88521E-05   576   0.213E-02    0.373E-02
DAV:   5    -0.240410752013E+02    0.35037E-05   -0.82021E-05   720   0.195E-02    0.652E-03
DAV:   6    -0.240410742992E+02    0.90208E-06   -0.30321E-06   576   0.508E-03    0.395E-03
DAV:   7    -0.240410746173E+02   -0.31809E-06   -0.11738E-06   600   0.325E-03    0.915E-04
DAV:   8    -0.240410746966E+02   -0.79356E-07   -0.20101E-07   864   0.104E-03
   9 F= -.24041075E+02 E0= -.24041075E+02  d E =-.234770E-10  mag=     0.0000
       N       E                     dE             d eps       ncg     rms          rms(c)
DAV:   1    -0.240413281348E+02   -0.25352E-03   -0.71765E-02   480   0.749E-01    0.756E-02
DAV:   2    -0.240413368865E+02   -0.87517E-05   -0.29104E-04   672   0.513E-02    0.612E-02
DAV:   3    -0.240413413636E+02   -0.44771E-05   -0.15192E-04   672   0.303E-02    0.100E-02
DAV:   4    -0.240413414211E+02   -0.57453E-07   -0.73233E-06   696   0.722E-03    0.734E-03
DAV:   5    -0.240413397953E+02    0.16258E-05   -0.78776E-06   528   0.641E-03    0.219E-03
DAV:   6    -0.240413397606E+02    0.34637E-07   -0.62444E-07   912   0.213E-03    0.130E-03
DAV:   7    -0.240413397525E+02    0.81544E-08   -0.30970E-07   528   0.154E-03    0.348E-04
DAV:   8    -0.240413397555E+02   -0.29825E-08   -0.20181E-08   648   0.529E-04
  10 F= -.24041340E+02 E0= -.24041340E+02  d E =-.268897E-10  mag=     0.0000
       N       E                     dE             d eps       ncg     rms          rms(c)
DAV:   1    -0.240416954004E+02   -0.35565E-03   -0.15701E-01   480   0.112E+00    0.158E-01
DAV:   2    -0.240414998335E+02    0.19557E-03   -0.88129E-04   912   0.865E-02    0.121E-01
DAV:   3    -0.240413929195E+02    0.10691E-03   -0.15914E-03   672   0.814E-02    0.431E-02
DAV:   4    -0.240413691977E+02    0.23722E-04   -0.56511E-05   672   0.178E-02    0.324E-02
DAV:   5    -0.240413639062E+02    0.52915E-05   -0.69515E-05   624   0.170E-02    0.652E-03
DAV:   6    -0.240413628324E+02    0.10738E-05   -0.41877E-06   864   0.526E-03    0.324E-03
DAV:   7    -0.240413631375E+02   -0.30505E-06   -0.89131E-07   600   0.277E-03    0.884E-04
DAV:   8    -0.240413632275E+02   -0.90044E-07   -0.12480E-07   816   0.982E-04
  11 F= -.24041363E+02 E0= -.24041363E+02  d E =-.176766E-10  mag=     0.0000
       N       E                     dE             d eps       ncg     rms          rms(c)
DAV:   1    -0.240419813434E+02   -0.61821E-03   -0.75239E-02   480   0.798E-01    0.964E-02
DAV:   2    -0.240419322891E+02    0.49054E-04   -0.43923E-04   696   0.632E-02    0.753E-02
DAV:   3    -0.240419118365E+02    0.20453E-04   -0.46619E-04   768   0.458E-02    0.251E-02
DAV:   4    -0.240419080906E+02    0.37460E-05   -0.14911E-05   576   0.993E-03    0.178E-02
DAV:   5    -0.240419080461E+02    0.44478E-07   -0.27527E-05   528   0.104E-02    0.341E-03
DAV:   6    -0.240419079550E+02    0.91111E-07   -0.68412E-07   816   0.270E-03    0.208E-03
DAV:   7    -0.240419081123E+02   -0.15733E-06   -0.42657E-07   624   0.200E-03    0.546E-04
DAV:   8    -0.240419081587E+02   -0.46393E-07   -0.56379E-08   768   0.729E-04
  12 F= -.24041908E+02 E0= -.24041908E+02  d E =-.231764E-10  mag=     0.0000
       N       E                     dE             d eps       ncg     rms          rms(c)
DAV:   1    -0.240418884638E+02    0.19648E-04   -0.14408E-01   480   0.112E+00    0.108E-01
DAV:   2    -0.240418728386E+02    0.15625E-04   -0.42088E-04   672   0.669E-02    0.867E-02
DAV:   3    -0.240419057514E+02   -0.32913E-04   -0.27667E-04   672   0.429E-02    0.106E-02
DAV:   4    -0.240419044614E+02    0.12900E-05   -0.10148E-05   528   0.102E-02    0.830E-03
DAV:   5    -0.240419021101E+02    0.23513E-05   -0.12225E-05   528   0.100E-02    0.230E-03
DAV:   6    -0.240419022134E+02   -0.10323E-06   -0.15682E-06   720   0.379E-03    0.115E-03
DAV:   7    -0.240419022526E+02   -0.39276E-07   -0.51710E-08   840   0.693E-04    0.507E-04
DAV:   8    -0.240419022587E+02   -0.60770E-08    0.12605E-09   576   0.324E-04
  13 F= -.24041902E+02 E0= -.24041902E+02  d E =-.237101E-10  mag=     0.0000
       N       E                     dE             d eps       ncg     rms          rms(c)
DAV:   1    -0.240417415813E+02    0.16067E-03   -0.72728E-02   480   0.896E-01    0.806E-02
DAV:   2    -0.240417442479E+02   -0.26666E-05   -0.50080E-04   720   0.677E-02    0.657E-02
DAV:   3    -0.240417488419E+02   -0.45940E-05   -0.20539E-04   672   0.334E-02    0.183E-02
DAV:   4    -0.240417517569E+02   -0.29151E-05   -0.11249E-05   816   0.917E-03    0.109E-02
DAV:   5    -0.240417517612E+02   -0.42746E-08   -0.14164E-05   624   0.765E-03    0.258E-03
DAV:   6    -0.240417517869E+02   -0.25651E-07   -0.40550E-07   864   0.195E-03    0.163E-03
DAV:   7    -0.240417518103E+02   -0.23472E-07   -0.35080E-07   600   0.176E-03    0.407E-04
DAV:   8    -0.240417518191E+02   -0.87798E-08   -0.23649E-08   960   0.564E-04
  14 F= -.24041752E+02 E0= -.24041752E+02  d E =-.221332E-10  mag=     0.0000
       N       E                     dE             d eps       ncg     rms          rms(c)
DAV:   1    -0.240418365544E+02   -0.84744E-04   -0.14744E-01   480   0.112E+00    0.124E-01
DAV:   2    -0.240417757687E+02    0.60786E-04   -0.53338E-04   768   0.708E-02    0.977E-02
DAV:   3    -0.240417643409E+02    0.11428E-04   -0.75896E-04   720   0.591E-02    0.284E-02
DAV:   4    -0.240417522343E+02    0.12107E-04   -0.32799E-05   576   0.138E-02    0.210E-02
DAV:   5    -0.240417490336E+02    0.32007E-05   -0.43560E-05   576   0.132E-02    0.477E-03
DAV:   6    -0.240417486919E+02    0.34177E-06   -0.15450E-06   816   0.367E-03    0.265E-03
DAV:   7    -0.240417488140E+02   -0.12212E-06   -0.96333E-07   624   0.293E-03    0.623E-04
DAV:   8    -0.240417488382E+02   -0.24182E-07   -0.12806E-07   816   0.102E-03
  15 F= -.24041749E+02 E0= -.24041749E+02  d E =-.239034E-10  mag=     0.0000
       N       E                     dE             d eps       ncg     rms          rms(c)
DAV:   1    -0.240409983343E+02    0.75048E-03   -0.85420E-02   480   0.843E-01    0.139E-01
DAV:   2    -0.240408019485E+02    0.19639E-03   -0.87878E-04   912   0.831E-02    0.106E-01
DAV:   3    -0.240406740749E+02    0.12787E-03   -0.12858E-03   528   0.725E-02    0.390E-02
DAV:   4    -0.240406543341E+02    0.19741E-04   -0.63739E-05   960   0.186E-02    0.284E-02
DAV:   5    -0.240406557740E+02   -0.14398E-05   -0.36634E-05   624   0.137E-02    0.596E-03
DAV:   6    -0.240406547699E+02    0.10040E-05   -0.25357E-06   864   0.490E-03    0.302E-03
DAV:   7    -0.240406550727E+02   -0.30279E-06   -0.44828E-07   576   0.195E-03    0.111E-03
DAV:   8    -0.240406551671E+02   -0.94317E-07   -0.11611E-07   816   0.842E-04
  16 F= -.24040655E+02 E0= -.24040655E+02  d E =-.171738E-10  mag=     0.0000
       N       E                     dE             d eps       ncg     rms          rms(c)
DAV:   1    -0.240414502716E+02   -0.79520E-03   -0.17196E-01   480   0.106E+00    0.204E-01
DAV:   2    -0.240409853309E+02    0.46494E-03   -0.14944E-03   624   0.102E-01    0.154E-01
DAV:   3    -0.240407221256E+02    0.26321E-03   -0.31327E-03   672   0.112E-01    0.592E-02
DAV:   4    -0.240406726197E+02    0.49506E-04   -0.11674E-04   576   0.246E-02    0.453E-02
DAV:   5    -0.240406632505E+02    0.93692E-05   -0.11489E-04   528   0.235E-02    0.868E-03
DAV:   6    -0.240406617647E+02    0.14858E-05   -0.96916E-06   816   0.868E-03    0.423E-03
DAV:   7    -0.240406622623E+02   -0.49761E-06   -0.82859E-07   624   0.263E-03    0.163E-03
DAV:   8    -0.240406624749E+02   -0.21259E-06   -0.19701E-07   552   0.124E-03
  17 F= -.24040662E+02 E0= -.24040662E+02  d E =-.224055E-10  mag=     0.0000
       N       E                     dE             d eps       ncg     rms          rms(c)
DAV:   1    -0.240420780815E+02   -0.14158E-02   -0.78677E-02   480   0.747E-01    0.114E-01
DAV:   2    -0.240419731378E+02    0.10494E-03   -0.58200E-04   912   0.704E-02    0.869E-02
DAV:   3    -0.240419143613E+02    0.58777E-04   -0.73628E-04   672   0.560E-02    0.312E-02
DAV:   4    -0.240419067427E+02    0.76186E-05   -0.24735E-05   672   0.126E-02    0.227E-02
DAV:   5    -0.240419078107E+02   -0.10680E-05   -0.34319E-05   624   0.120E-02    0.395E-03
DAV:   6    -0.240419075681E+02    0.24262E-06   -0.91546E-07   912   0.294E-03    0.243E-03
DAV:   7    -0.240419078415E+02   -0.27339E-06   -0.46194E-07   576   0.209E-03    0.705E-04
DAV:   8    -0.240419079372E+02   -0.95748E-07   -0.67764E-08   864   0.751E-04
  18 F= -.24041908E+02 E0= -.24041908E+02  d E =-.228213E-10  mag=     0.0000
       N       E                     dE             d eps       ncg     rms          rms(c)
DAV:   1    -0.240418891801E+02    0.18661E-04   -0.14409E-01   480   0.112E+00    0.108E-01
DAV:   2    -0.240418717962E+02    0.17384E-04   -0.41217E-04   576   0.671E-02    0.865E-02
DAV:   3    -0.240419046175E+02   -0.32821E-04   -0.26669E-04   576   0.426E-02    0.107E-02
DAV:   4    -0.240419043944E+02    0.22306E-06   -0.12890E-05   672   0.113E-02    0.831E-03
DAV:   5    -0.240419020224E+02    0.23720E-05   -0.12678E-05   672   0.101E-02    0.214E-03
DAV:   6    -0.240419021155E+02   -0.93139E-07   -0.11177E-06   576   0.327E-03    0.113E-03
DAV:   7    -0.240419021534E+02   -0.37916E-07   -0.63454E-08   912   0.717E-04    0.507E-04
DAV:   8    -0.240419021569E+02   -0.34713E-08   -0.24646E-09   576   0.373E-04
  19 F= -.24041902E+02 E0= -.24041902E+02  d E =-.234248E-10  mag=     0.0000
       N       E                     dE             d eps       ncg     rms          rms(c)
DAV:   1    -0.240415396825E+02    0.36247E-03   -0.74561E-02   480   0.871E-01    0.899E-02
DAV:   2    -0.240415099651E+02    0.29717E-04   -0.56051E-04   816   0.746E-02    0.714E-02
DAV:   3    -0.240414866103E+02    0.23355E-04   -0.38309E-04   672   0.440E-02    0.238E-02
DAV:   4    -0.240414916065E+02   -0.49962E-05   -0.15446E-05   816   0.110E-02    0.163E-02
DAV:   5    -0.240414918489E+02   -0.24244E-06   -0.22036E-05   624   0.914E-03    0.420E-03
DAV:   6    -0.240414914311E+02    0.41783E-06   -0.10900E-06   768   0.292E-03    0.247E-03
DAV:   7    -0.240414915227E+02   -0.91628E-07   -0.77749E-07   576   0.265E-03    0.569E-04
DAV:   8    -0.240414915524E+02   -0.29683E-07   -0.10584E-07   960   0.913E-04
  20 F= -.24041492E+02 E0= -.24041492E+02  d E =-.235620E-10  mag=     0.0000
       N       E                     dE             d eps       ncg     rms          rms(c)
DAV:   1    -0.240417243351E+02   -0.23281E-03   -0.15426E-01   480   0.112E+00    0.149E-01
DAV:   2    -0.240415514513E+02    0.17288E-03   -0.69776E-04   720   0.795E-02    0.114E-01
DAV:   3    -0.240414817625E+02    0.69689E-04   -0.13391E-03   672   0.760E-02    0.397E-02
DAV:   4    -0.240414635305E+02    0.18232E-04   -0.48854E-05   672   0.167E-02    0.301E-02
DAV:   5    -0.240414588003E+02    0.47302E-05   -0.58574E-05   768   0.154E-02    0.623E-03
DAV:   6    -0.240414579619E+02    0.83843E-06   -0.38855E-06   672   0.450E-03    0.311E-03
DAV:   7    -0.240414582679E+02   -0.30608E-06   -0.91448E-07   624   0.295E-03    0.708E-04
DAV:   8    -0.240414583147E+02   -0.46771E-07   -0.14229E-07   960   0.101E-03
  21 F= -.24041458E+02 E0= -.24041458E+02  d E =-.206888E-10  mag=     0.0000
       N       E                     dE             d eps       ncg     rms          rms(c)
DAV:   1    -0.240419691674E+02   -0.51090E-03   -0.76099E-02   480   0.808E-01    0.102E-01
DAV:   2    -0.240419061255E+02    0.63042E-04   -0.42972E-04   576   0.639E-02    0.780E-02
DAV:   3    -0.240418722173E+02    0.33908E-04   -0.53989E-04   624   0.490E-02    0.270E-02
DAV:   4    -0.240418668756E+02    0.53416E-05   -0.20243E-05   768   0.117E-02    0.197E-02
DAV:   5    -0.240418652375E+02    0.16381E-05   -0.30330E-05   528   0.109E-02    0.356E-03
DAV:   6    -0.240418651093E+02    0.12817E-06   -0.75750E-07   864   0.282E-03    0.219E-03
DAV:   7    -0.240418651888E+02   -0.79448E-07   -0.38937E-07   528   0.190E-03    0.580E-04
DAV:   8    -0.240418652141E+02   -0.25323E-07   -0.58983E-08   936   0.697E-04
  22 F= -.24041865E+02 E0= -.24041865E+02  d E =-.241134E-10  mag=     0.0000
       N       E                     dE             d eps       ncg     rms          rms(c)
DAV:   1    -0.240418861315E+02   -0.20943E-04   -0.14499E-01   480   0.112E+00    0.112E-01
DAV:   2    -0.240418739708E+02    0.12161E-04   -0.42735E-04   816   0.674E-02    0.892E-02
DAV:   3    -0.240418831442E+02   -0.91734E-05   -0.39043E-04   672   0.468E-02    0.167E-02
DAV:   4    -0.240418789422E+02    0.42020E-05   -0.17474E-05   672   0.112E-02    0.125E-02
DAV:   5    -0.240418759548E+02    0.29874E-05   -0.20250E-05   576   0.987E-03    0.348E-03
DAV:   6    -0.240418758723E+02    0.82452E-07   -0.12458E-06   960   0.326E-03    0.207E-03
DAV:   7    -0.240418758936E+02   -0.21295E-07   -0.85587E-07   576   0.259E-03    0.530E-04
DAV:   8    -0.240418759004E+02   -0.67436E-08   -0.70027E-08   816   0.842E-04
  23 F= -.24041876E+02 E0= -.24041876E+02  d E =-.216927E-10  mag=     0.0000
       N       E                     dE             d eps       ncg     rms          rms(c)
DAV:   1    -0.240410368365E+02    0.83906E-03   -0.75942E-02   480   0.817E-01    0.981E-02
DAV:   2    -0.240409784872E+02    0.58349E-04   -0.40673E-04   768   0.604E-02    0.767E-02
DAV:   3    -0.240409580388E+02    0.20448E-04   -0.52941E-04   768   0.481E-02    0.254E-02
DAV:   4    -0.240409493504E+02    0.86884E-05   -0.23431E-05   720   0.110E-02    0.179E-02
DAV:   5    -0.240409503911E+02   -0.10407E-05   -0.20364E-05   672   0.907E-03    0.382E-03
DAV:   6    -0.240409500100E+02    0.38114E-06   -0.98922E-07   864   0.269E-03    0.205E-03
DAV:   7    -0.240409501666E+02   -0.15666E-06   -0.37954E-07   576   0.189E-03    0.479E-04
DAV:   8    -0.240409501714E+02   -0.47967E-08   -0.44414E-08   960   0.637E-04
  24 F= -.24040950E+02 E0= -.24040950E+02  d E =-.166105E-10  mag=     0.0000
       N       E                     dE             d eps       ncg     rms          rms(c)
DAV:   1    -0.240415984584E+02   -0.64829E-03   -0.16525E-01   480   0.110E+00    0.187E-01
DAV:   2    -0.240412116138E+02    0.38684E-03   -0.10901E-03   624   0.892E-02    0.139E-01
DAV:   3    -0.240410217112E+02    0.18990E-03   -0.23260E-03   624   0.975E-02    0.528E-02
DAV:   4    -0.240409882680E+02    0.33443E-04   -0.92256E-05   768   0.221E-02    0.398E-02
DAV:   5    -0.240409860918E+02    0.21762E-05   -0.76682E-05   528   0.189E-02    0.760E-03
DAV:   6    -0.240409849520E+02    0.11398E-05   -0.71750E-06   816   0.725E-03    0.381E-03
DAV:   7    -0.240409853871E+02   -0.43516E-06   -0.76373E-07   576   0.252E-03    0.143E-03
DAV:   8    -0.240409856166E+02   -0.22948E-06   -0.17831E-07   672   0.115E-03
  25 F= -.24040986E+02 E0= -.24040986E+02  d E =-.255790E-10  mag=     0.0000
       N       E                     dE             d eps       ncg     rms          rms(c)
DAV:   1    -0.240415722833E+02   -0.58690E-03   -0.77213E-02   480   0.830E-01    0.108E-01
DAV:   2    -0.240415381425E+02    0.34141E-04   -0.57458E-04   768   0.749E-02    0.871E-02
DAV:   3    -0.240414754353E+02    0.62707E-04   -0.25065E-04   672   0.437E-02    0.264E-02
DAV:   4    -0.240414830177E+02   -0.75824E-05   -0.38940E-05   768   0.178E-02    0.115E-02
DAV:   5    -0.240414813250E+02    0.16927E-05   -0.12001E-05   672   0.777E-03    0.487E-03
DAV:   6    -0.240414813521E+02   -0.27185E-07   -0.17315E-06   720   0.357E-03    0.256E-03
DAV:   7    -0.240414816984E+02   -0.34628E-06   -0.50412E-07   576   0.220E-03    0.728E-04
DAV:   8    -0.240414817340E+02   -0.35549E-07   -0.81541E-08   912   0.780E-04
  26 F= -.24041482E+02 E0= -.24041482E+02  d E =-.234311E-10  mag=     0.0000
       N       E                     dE             d eps       ncg     rms          rms(c)
DAV:   1    -0.240417278963E+02   -0.24620E-03   -0.15441E-01   480   0.112E+00    0.150E-01
DAV:   2    -0.240415533022E+02    0.17459E-03   -0.70507E-04   672   0.798E-02    0.114E-01
DAV:   3    -0.240414825201E+02    0.70782E-04   -0.13560E-03   672   0.764E-02    0.399E-02
DAV:   4    -0.240414639691E+02    0.18551E-04   -0.49357E-05   672   0.168E-02    0.303E-02
DAV:   5    -0.240414592588E+02    0.47104E-05   -0.58263E-05   768   0.154E-02    0.635E-03
DAV:   6    -0.240414583655E+02    0.89329E-06   -0.41779E-06   696   0.463E-03    0.311E-03
DAV:   7    -0.240414586682E+02   -0.30274E-06   -0.92066E-07   624   0.295E-03    0.707E-04
DAV:   8    -0.240414587149E+02   -0.46690E-07   -0.13429E-07   960   0.997E-04
  27 F= -.24041459E+02 E0= -.24041459E+02  d E =-.206604E-10  mag=     0.0000
       N       E                     dE             d eps       ncg     rms          rms(c)
DAV:   1    -0.240419688684E+02   -0.51020E-03   -0.76146E-02   480   0.807E-01    0.102E-01
DAV:   2    -0.240419050398E+02    0.63829E-04   -0.43144E-04   576   0.639E-02    0.782E-02
DAV:   3    -0.240418705522E+02    0.34488E-04   -0.54375E-04   624   0.491E-02    0.272E-02
DAV:   4    -0.240418652080E+02    0.53442E-05   -0.20212E-05   768   0.117E-02    0.198E-02
DAV:   5    -0.240418635486E+02    0.16595E-05   -0.30488E-05   528   0.109E-02    0.357E-03
DAV:   6    -0.240418634169E+02    0.13169E-06   -0.77266E-07   864   0.284E-03    0.220E-03
DAV:   7    -0.240418634985E+02   -0.81562E-07   -0.38833E-07   576   0.190E-03    0.583E-04
DAV:   8    -0.240418635254E+02   -0.26935E-07   -0.58181E-08   960   0.694E-04
  28 F= -.24041864E+02 E0= -.24041864E+02  d E =-.238314E-10  mag=     0.0000
       N       E                     dE             d eps       ncg     rms          rms(c)
DAV:   1    -0.240418877376E+02   -0.24239E-04   -0.14499E-01   480   0.112E+00    0.112E-01
DAV:   2    -0.240418754009E+02    0.12337E-04   -0.42710E-04   816   0.673E-02    0.893E-02
DAV:   3    -0.240418845726E+02   -0.91717E-05   -0.39259E-04   672   0.469E-02    0.167E-02
DAV:   4    -0.240418802771E+02    0.42955E-05   -0.17614E-05   672   0.113E-02    0.126E-02
DAV:   5    -0.240418772706E+02    0.30065E-05   -0.20390E-05   576   0.989E-03    0.349E-03
DAV:   6    -0.240418771858E+02    0.84848E-07   -0.12490E-06   960   0.327E-03    0.208E-03
DAV:   7    -0.240418772065E+02   -0.20724E-07   -0.85742E-07   576   0.260E-03    0.532E-04
DAV:   8    -0.240418772136E+02   -0.71198E-08   -0.71020E-08   912   0.845E-04
  29 F= -.24041877E+02 E0= -.24041877E+02  d E =-.214648E-10  mag=     0.0000
       N       E                     dE             d eps       ncg     rms          rms(c)
DAV:   1    -0.240411859617E+02    0.69124E-03   -0.79117E-02   480   0.827E-01    0.117E-01
DAV:   2    -0.240410620196E+02    0.12394E-03   -0.56747E-04   576   0.690E-02    0.887E-02
DAV:   3    -0.240409984476E+02    0.63572E-04   -0.82537E-04   624   0.591E-02    0.327E-02
DAV:   4    -0.240409877670E+02    0.10681E-04   -0.35130E-05   768   0.141E-02    0.237E-02
DAV:   5    -0.240409890037E+02   -0.12367E-05   -0.30854E-05   528   0.119E-02    0.456E-03
DAV:   6    -0.240409885311E+02    0.47266E-06   -0.15941E-06   720   0.393E-03    0.257E-03
DAV:   7    -0.240409887594E+02   -0.22828E-06   -0.40148E-07   624   0.193E-03    0.751E-04
DAV:   8    -0.240409888292E+02   -0.69847E-07   -0.72669E-08   768   0.750E-04
  30 F= -.24040989E+02 E0= -.24040989E+02  d E =-.247245E-10  mag=     0.0000
       N       E                     dE             d eps       ncg     rms          rms(c)
DAV:   1    -0.240415449996E+02   -0.55624E-03   -0.16589E-01   480   0.111E+00    0.185E-01
DAV:   2    -0.240411794485E+02    0.36555E-03   -0.11489E-03   864   0.939E-02    0.139E-01
DAV:   3    -0.240409916280E+02    0.18782E-03   -0.22014E-03   672   0.946E-02    0.517E-02
DAV:   4    -0.240409589330E+02    0.32695E-04   -0.86968E-05   816   0.209E-02    0.379E-02
DAV:   5    -0.240409585651E+02    0.36789E-06   -0.65975E-05   768   0.175E-02    0.707E-03
DAV:   6    -0.240409572406E+02    0.13245E-05   -0.44622E-06   720   0.546E-03    0.386E-03
DAV:   7    -0.240409578474E+02   -0.60684E-06   -0.97837E-07   576   0.293E-03    0.961E-04
DAV:   8    -0.240409579724E+02   -0.12498E-06   -0.13714E-07   816   0.935E-04
  31 F= -.24040958E+02 E0= -.24040958E+02  d E =-.171380E-10  mag=     0.0000
