 vasp.5.3.3 18Dez12 (build Mar 06 2013 10:35:37) complex                        
  
 executed on             LinuxIFC date 2014.10.01  10:59:36
 running on   24 total cores
 distrk:  each k-point on   24 cores,    1 groups
 distr:  one band on NCORES_PER_BAND=   6 cores,    4 groups


--------------------------------------------------------------------------------------------------------


 INCAR:
 POTCAR:    PAW_PBE C 08Apr2002                   
 POTCAR:    PAW_PBE H 15Jun2001                   
 POTCAR:    PAW_PBE C 08Apr2002                   
   VRHFIN =C: s2p2                                                              
   LEXCH  = PE                                                                  
   EATOM  =   147.1560 eV,   10.8157 Ry                                         
                                                                                
   TITEL  = PAW_PBE C 08Apr2002                                                 
   LULTRA =        F    use ultrasoft PP ?                                      
   IUNSCR =        1    unscreen: 0-lin 1-nonlin 2-no                           
   RPACOR =    1.200    partial core radius                                     
   POMASS =   12.011; ZVAL   =    4.000    mass and valenz                      
   RCORE  =    1.500    outmost cutoff radius                                   
   RWIGS  =    1.630; RWIGS  =    0.863    wigner-seitz radius (au A)           
   ENMAX  =  400.000; ENMIN  =  300.000 eV                                      
   ICORE  =        2    local potential                                         
   LCOR   =        T    correct aug charges                                     
   LPAW   =        T    paw PP                                                  
   EAUG   =  644.873                                                            
   DEXC   =    0.000                                                            
   RMAX   =    1.529    core radius for proj-oper                               
   RAUG   =    1.300    factor for augmentation sphere                          
   RDEP   =    1.501    radius for radial grids                                 
   RDEPT  =    1.300    core radius for aug-charge                              
                                                                                
   Atomic configuration                                                         
    4 entries                                                                   
     n  l   j            E        occ.                                          
     1  0  0.50      -273.3789   2.0000                                         
     2  0  0.50       -13.7508   2.0000                                         
     2  1  0.50        -5.2854   2.0000                                         
     3  2  1.50        -5.4423   0.0000                                         
   Description                                                                  
     l       E           TYP  RCUT    TYP  RCUT                                 
     0    -13.7508458     23  1.200                                             
     0     -8.2022199     23  1.200                                             
     1     -5.2854383     23  1.500                                             
     1     34.0145650     23  1.500                                             
     2     -5.4423304      7  1.500                                             
  local pseudopotential read in
  partial core-charges read in
  partial kinetic energy density read in
  atomic valenz-charges read in
  non local Contribution for L=           0  read in
    real space projection operators read in
  non local Contribution for L=           0  read in
    real space projection operators read in
  non local Contribution for L=           1  read in
    real space projection operators read in
  non local Contribution for L=           1  read in
    real space projection operators read in
    PAW grid and wavefunctions read in
 
   number of l-projection  operators is LMAX  =           4
   number of lm-projection operators is LMMAX =           8
 
 POTCAR:    PAW_PBE H 15Jun2001                   
   VRHFIN =H: ultrasoft test                                                    
   LEXCH  = PE                                                                  
   EATOM  =    12.4884 eV,    0.9179 Ry                                         
                                                                                
   TITEL  = PAW_PBE H 15Jun2001                                                 
   LULTRA =        F    use ultrasoft PP ?                                      
   IUNSCR =        0    unscreen: 0-lin 1-nonlin 2-no                           
   RPACOR =    0.000    partial core radius                                     
   POMASS =    1.000; ZVAL   =    1.000    mass and valenz                      
   RCORE  =    1.100    outmost cutoff radius                                   
   RWIGS  =    0.700; RWIGS  =    0.370    wigner-seitz radius (au A)           
   ENMAX  =  250.000; ENMIN  =  200.000 eV                                      
   RCLOC  =    0.701    cutoff for local pot                                    
   LCOR   =        T    correct aug charges                                     
   LPAW   =        T    paw PP                                                  
   EAUG   =  400.000                                                            
   RMAX   =    1.123    core radius for proj-oper                               
   RAUG   =    1.200    factor for augmentation sphere                          
   RDEP   =    1.112    radius for radial grids                                 
   RDEPT  =    0.926    core radius for aug-charge                              
                                                                                
   Atomic configuration                                                         
    2 entries                                                                   
     n  l   j            E        occ.                                          
     1  0  0.50        -6.4927   1.0000                                         
     2  1  0.50        -3.4015   0.0000                                         
   Description                                                                  
     l       E           TYP  RCUT    TYP  RCUT                                 
     0     -6.4927494     23  1.100                                             
     0      6.8029130     23  1.100                                             
     1     -4.0817478     23  1.100                                             
  local pseudopotential read in
  atomic valenz-charges read in
  non local Contribution for L=           0  read in
    real space projection operators read in
  non local Contribution for L=           0  read in
    real space projection operators read in
  non local Contribution for L=           1  read in
    real space projection operators read in
    PAW grid and wavefunctions read in
 
   number of l-projection  operators is LMAX  =           3
   number of lm-projection operators is LMMAX =           5
 

 ----------------------------------------------------------------------------- 
|                                                                             |
|  ADVICE TO THIS USER RUNNING 'VASP/VAMP'   (HEAR YOUR MASTER'S VOICE ...):  |
|                                                                             |
|      You have a (more or less) 'small supercell' and for smaller cells      |
|      it is recommended  to use the reciprocal-space projection scheme!      |
|      The real space optimization is not  efficient for small cells and it   |
|      is also less accurate ...                                              |
|      Therefore set LREAL=.FALSE. in the  INCAR file                         |
|                                                                             |
 ----------------------------------------------------------------------------- 

 Optimization of the real space projectors (new method)

 maximal supplied QI-value         = 25.13
 optimisation between [QCUT,QGAM] = [ 11.56, 23.12] = [ 37.43,149.72] Ry 
 Optimized for a Real-space Cutoff    1.04 Angstroem

   l    n(q)    QCUT    max X(q) W(low)/X(q) W(high)/X(q)  e(spline) 
   0      7    11.561   115.676    0.20E-03    0.60E-03    0.21E-06
   0      7    11.561    87.132    0.20E-03    0.59E-03    0.21E-06
   1      7    11.561     4.429    0.23E-03    0.35E-03    0.15E-06
   1      7    11.561     2.733    0.18E-03    0.25E-03    0.12E-06
 Optimization of the real space projectors (new method)

 maximal supplied QI-value         = 34.20
 optimisation between [QCUT,QGAM] = [ 11.63, 23.26] = [ 37.87,151.49] Ry 
 Optimized for a Real-space Cutoff    1.21 Angstroem

   l    n(q)    QCUT    max X(q) W(low)/X(q) W(high)/X(q)  e(spline) 
   0      8    11.629    19.460    0.17E-03    0.34E-03    0.21E-06
   0      8    11.629    12.209    0.16E-03    0.33E-03    0.21E-06
   1      8    11.629     4.655    0.18E-03    0.16E-03    0.26E-06
  PAW_PBE C 08Apr2002                   :
 energy of atom  1       EATOM= -147.1560
 kinetic energy error for atom=    0.0071 (will be added to EATOM!!)
  PAW_PBE H 15Jun2001                   :
 energy of atom  2       EATOM=  -12.4884
 kinetic energy error for atom=    0.0014 (will be added to EATOM!!)
 
 
 POSCAR: methane in vacuum                       
  positions in direct lattice
  velocities in cartesian coordinates
 exchange correlation table for  LEXCH =        8
   RHO(1)=    0.500       N(1)  =     2000
   RHO(2)=  100.500       N(2)  =     4000
 


--------------------------------------------------------------------------------------------------------


 ion  position               nearest neighbor table
   1  0.988  0.975  1.000-   4 1.10   5 1.10   2 1.10   3 1.10
   2  0.943  0.053  1.000-   1 1.10
   3  0.894  0.859  1.000-   1 1.10
   4  0.057  0.995  0.976-   1 1.10
   5  0.057  0.995  0.024-   1 1.10
 
  LATTYP: Found a hexagonal cell.
 ALAT       =    10.2313750982
 C/A-ratio  =     3.6565155755
  
  Lattice vectors:
  
 A1 = (  10.2313750981,   0.0000000000,   0.0000000000)
 A2 = (  -5.1156875490,   8.8606307507,   0.0000000000)
 A3 = (   0.0000000000,   0.0000000000,  37.4111824051)


Analysis of symmetry for initial positions (statically):
=====================================================================
 Subroutine PRICEL returns:
 Original cell was already a primitive cell.
 

 Routine SETGRP: Setting up the symmetry group for a 
 hexagonal supercell.


 Subroutine GETGRP returns: Found  1 space group operations
 (whereof  1 operations were pure point group operations)
 out of a pool of 24 trial point group operations.


The static configuration has the point symmetry C_1 .


Analysis of symmetry for dynamics (positions and initial velocities):
=====================================================================
 Subroutine PRICEL returns:
 Original cell was already a primitive cell.
 

 Routine SETGRP: Setting up the symmetry group for a 
 hexagonal supercell.


 Subroutine GETGRP returns: Found  1 space group operations
 (whereof  1 operations were pure point group operations)
 out of a pool of 24 trial point group operations.


The dynamic configuration has the point symmetry C_1 .


Analysis of magnetic symmetry:
=====================================================================

 Subroutine MAGSYM returns: Found  1 space group operations
 (whereof  1 operations were pure point group operations)
 out of a pool of  1 trial space group operations
 (whereof  1 operations were pure point group operations)
 and found also     1 'primitive' translations


The magnetic configuration has the point symmetry C_1 .


 irot  :   1
 --------------------------------------------------------------------
 isymop:   1   0   0
           0   1   0
           0   0   1

 gtrans:     0.0000000     0.0000000     0.0000000

 ptrans:     0.0000000     0.0000000     0.0000000
 rotmap:
 (   1->   1)  (   2->   2)  (   3->   3)  (   4->   4)  (   5->   5) 
 
 
 KPOINTS: kpoints                                 

Automatic generation of k-mesh.
Space group operators:
 irot       det(A)        alpha          n_x          n_y          n_z        tau_x        tau_y        tau_z
    1     1.000000     0.000000     1.000000     0.000000     0.000000     0.000000     0.000000     0.000000
 
 Subroutine IBZKPT returns following result:
 ===========================================
 
 Found      5 irreducible k-points:
 
 Following reciprocal coordinates:
            Coordinates               Weight
  0.000000  0.000000  0.000000      1.000000
  0.333333  0.000000  0.000000      2.000000
  0.000000  0.333333  0.000000      2.000000
  0.333333  0.333333  0.000000      2.000000
 -0.333333  0.333333  0.000000      2.000000
 
 Following cartesian coordinates:
            Coordinates               Weight
  0.000000  0.000000  0.000000      1.000000
  0.032580  0.018810  0.000000      2.000000
  0.000000  0.037620  0.000000      2.000000
  0.032580  0.056429  0.000000      2.000000
 -0.032580  0.018810  0.000000      2.000000
 


--------------------------------------------------------------------------------------------------------




 Dimension of arrays:
   k-points           NKPTS =      5   k-points in BZ     NKDIM =      5   number of bands    NBANDS=      8
   number of dos      NEDOS =    301   number of ions     NIONS =      5
   non local maximal  LDIM  =      4   non local SUM 2l+1 LMDIM =      8
   total plane-waves  NPLWV = ******
   max r-space proj   IRMAX =   3978   max aug-charges    IRDMAX=  50075
   dimension x,y,z NGX =    80 NGY =   80 NGZ =  280
   dimension x,y,z NGXF=   160 NGYF=  160 NGZF=  560
   support grid    NGXF=   320 NGYF=  320 NGZF= 1120
   ions per type =               1   4
 NGX,Y,Z   is equivalent  to a cutoff of  13.00, 13.00, 12.44 a.u.
 NGXF,Y,Z  is equivalent  to a cutoff of  26.00, 26.00, 24.88 a.u.


 I would recommend the setting:
   dimension x,y,z NGX =    76 NGY =   76 NGZ =  278
 SYSTEM =  fe2O3 (0001) surface scan               
 POSCAR =  methane in vacuum                       

 Startparameter for this run:
   NWRITE =      2    write-flag & timer
   PREC   = accura    normal or accurate (medium, high low for compatibility)
   ISTART =      0    job   : 0-new  1-cont  2-samecut
   ICHARG =      2    charge: 1-file 2-atom 10-const
   ISPIN  =      2    spin polarized calculation?
   LNONCOLLINEAR =      F non collinear calculations
   LSORBIT =      F    spin-orbit coupling
   INIWAV =      1    electr: 0-lowe 1-rand  2-diag
   LASPH  =      T    aspherical Exc in radial PAW
   METAGGA=      F    non-selfconsistent MetaGGA calc.

 Electronic Relaxation 1
   ENCUT  =  520.0 eV  38.22 Ry    6.18 a.u.  19.02 19.02 69.56*2*pi/ulx,y,z
   ENINI  =  520.0     initial cutoff
   ENAUG  =  644.9 eV  augmentation charge cutoff
   NELM   =    200;   NELMIN=  8; NELMDL= -5     # of ELM steps 
   EDIFF  = 0.1E-04   stopping-criterion for ELM
   LREAL  =      T    real-space projection
   NLSPLINE    = F    spline interpolate recip. space projectors
   LCOMPAT=      F    compatible to vasp.4.4
   GGA_COMPAT  = T    GGA compatible to vasp.4.4-vasp.4.6
   LMAXPAW     = -100 max onsite density
   LMAXMIX     =    2 max onsite mixed and CHGCAR
   VOSKOWN=      1    Vosko Wilk Nusair interpolation
   ROPT   =   -0.00025  -0.00025
 Ionic relaxation
   EDIFFG = -.1E-01   stopping-criterion for IOM
   NSW    =     50    number of steps for IOM
   NBLOCK =      1;   KBLOCK =     50    inner block; outer block 
   IBRION =      2    ionic relax: 0-MD 1-quasi-New 2-CG
   NFREE  =      1    steps in history (QN), initial steepest desc. (CG)
   ISIF   =      2    stress and relaxation
   IWAVPR =     11    prediction:  0-non 1-charg 2-wave 3-comb
   ISYM   =      2    0-nonsym 1-usesym 2-fastsym
   LCORR  =      T    Harris-Foulkes like correction to forces

   POTIM  = 0.1000    time-step for ionic-motion
   TEIN   =    0.0    initial temperature
   TEBEG  =    0.0;   TEEND  =   0.0 temperature during run
   SMASS  =  -3.00    Nose mass-parameter (am)
   estimated Nose-frequenzy (Omega)   =  0.10E-29 period in steps =****** mass=  -0.239E-26a.u.
   SCALEE = 1.0000    scale energy and forces
   NPACO  =    256;   APACO  = 16.0  distance and # of slots for P.C.
   PSTRESS=    0.0 pullay stress

  Mass of Ions in am
   POMASS =  12.01  1.00
  Ionic Valenz
   ZVAL   =   4.00  1.00
  Atomic Wigner-Seitz radii
   RWIGS  =  -1.00 -1.00
  virtual crystal weights 
   VCA    =   1.00  1.00
   NELECT =       8.0000    total number of electrons
   NUPDOWN=       0.0000    fix difference up-down

 DOS related values:
   EMIN   =  10.00;   EMAX   =-10.00  energy-range for DOS
   EFERMI =   0.00
   ISMEAR =     0;   SIGMA  =   0.10  broadening in eV -4-tet -1-fermi 0-gaus

 Electronic relaxation 2 (details)
   IALGO  =     38    algorithm
   LDIAG  =      T    sub-space diagonalisation (order eigenvalues)
   LSUBROT=      T    optimize rotation matrix (better conditioning)
   TURBO    =      0    0=normal 1=particle mesh
   IRESTART =      0    0=no restart 2=restart with 2 vectors
   NREBOOT  =      0    no. of reboots
   NMIN     =      0    reboot dimension
   EREF     =   0.00    reference energy to select bands
   IMIX   =      4    mixing-type and parameters
     AMIX     =   0.20;   BMIX     =  0.00
     AMIX_MAG =   0.80;   BMIX_MAG =  0.00
     AMIN     =   0.10
     WC   =   100.;   INIMIX=   1;  MIXPRE=   1;  MAXMIX= -45

 Intra band minimization:
   WEIMIN = 0.0010     energy-eigenvalue tresh-hold
   EBREAK =  0.31E-06  absolut break condition
   DEPER  =   0.30     relativ break condition  

   TIME   =   0.40     timestep for ELM

  volume/ion in A,a.u.               =     678.31      4577.48
  Fermi-wavevector in a.u.,A,eV,Ry     =   0.217924  0.411816  0.646152  0.047491
  Thomas-Fermi vector in A             =   0.995420
 
 Write flags
   LWAVE  =      T    write WAVECAR
   LCHARG =      T    write CHGCAR
   LVTOT  =      F    write LOCPOT, total local potential
   LVHAR  =      F    write LOCPOT, Hartree potential only
   LELF   =      F    write electronic localiz. function (ELF)
   LORBIT =      0    0 simple, 1 ext, 2 COOP (PROOUT)


 Dipole corrections
   LMONO  =      F    monopole corrections only (constant potential shift)
   LDIPOL =      F    correct potential (dipole corrections)
   IDIPOL =      0    1-x, 2-y, 3-z, 4-all directions 
   EPSILON=  1.0000000 bulk dielectric constant

 LDA+U is selected, type is set to LDAUTYPE =  2
   angular momentum for each species LDAUL =     1    0
   U (eV)           for each species LDAUU =   0.0  0.0
   J (eV)           for each species LDAUJ =   0.0  0.0
 Exchange correlation treatment:
   GGA     =    --    GGA type
   LEXCH   =     8    internal setting for exchange type
   VOSKOWN=      1    Vosko Wilk Nusair interpolation
   LHFCALC =     F    Hartree Fock is set to
   LHFONE  =     F    Hartree Fock one center treatment
   AEXX    =    0.0000 exact exchange contribution

 Linear response parameters
   LEPSILON=     F    determine dielectric tensor
   LRPA    =     F    only Hartree local field effects (RPA)
   LNABLA  =     F    use nabla operator in PAW spheres
   LVEL    =     F    velocity operator in full k-point grid
   LINTERFAST=   F  fast interpolation
   KINTER  =     0    interpolate to denser k-point grid
   CSHIFT  =0.1000    complex shift for real part using Kramers Kronig
   OMEGAMAX=  -1.0    maximum frequency
   DEG_THRESHOLD= 0.2000000E-02 threshold for treating states as degnerate
   RTIME   =    0.100 relaxation time in fs

 Orbital magnetization related:
   ORBITALMAG=     F  switch on orbital magnetization
   LCHIMAG   =     F  perturbation theory with respect to B field
   DQ        =  0.001000  dq finite difference perturbation B field



--------------------------------------------------------------------------------------------------------


 conjugate gradient relaxation of ions
 charge density and potential will be updated during run
 spin polarized calculation
 Variant of blocked Davidson
 Davidson routine will perform the subspace rotation
 perform sub-space diagonalisation
    after iterative eigenvector-optimisation
 modified Broyden-mixing scheme, WC =      100.0
 initial mixing is a Kerker type mixing with AMIX =  0.2000 and BMIX =      0.0001
 Hartree-type preconditioning will be used
 using additional bands            4
 real space projection scheme for non local part
 use partial core corrections
 calculate Harris-corrections to forces 
   (improved forces if not selfconsistent)
 use gradient corrections 
 use of overlap-Matrix (Vanderbilt PP)
 Gauss-broadening in eV      SIGMA  =   0.10


--------------------------------------------------------------------------------------------------------


  energy-cutoff  :      520.00
  volume of cell :     3391.56
      direct lattice vectors                 reciprocal lattice vectors
    10.231375098  0.000000000  0.000000000     0.097738573  0.056429391  0.000000000
    -5.115687549  8.860630751  0.000000000     0.000000000  0.112858783  0.000000000
     0.000000000  0.000000000 37.411182405     0.000000000  0.000000000  0.026729976

  length of vectors
    10.231375098 10.231375098 37.411182405     0.112858783  0.112858783  0.026729976


 
 k-points in units of 2pi/SCALE and weight: kpoints                                 
   0.00000000  0.00000000  0.00000000       0.111
   0.03257952  0.01880980  0.00000000       0.222
   0.00000000  0.03761959  0.00000000       0.222
   0.03257952  0.05642939  0.00000000       0.222
  -0.03257952  0.01880980  0.00000000       0.222
 
 k-points in reciprocal lattice and weights: kpoints                                 
   0.00000000  0.00000000  0.00000000       0.111
   0.33333333  0.00000000  0.00000000       0.222
   0.00000000  0.33333333  0.00000000       0.222
   0.33333333  0.33333333  0.00000000       0.222
  -0.33333333  0.33333333  0.00000000       0.222
 
 position of ions in fractional coordinates (direct lattice) 
   0.98774718  0.97539498  0.99994730
   0.94330186  0.05313142  0.99997922
   0.89375983  0.85876858  0.99997923
   0.05677493  0.99480597  0.97599493
   0.05716819  0.99491641  0.02383203
 
 position of ions in cartesian coordinates  (Angst):
   5.11619593  8.64261478 37.40921078
   9.37947141  0.47077788 37.41040487
   4.75120032  7.60923129 37.41040525
  -4.50823087  8.81460833 36.51312424
  -4.50477233  8.81558694  0.89158449
 


--------------------------------------------------------------------------------------------------------


 k-point  1 :   0.0000 0.0000 0.0000  plane waves:   91045
 k-point  2 :   0.3333 0.0000 0.0000  plane waves:   91327
 k-point  3 :   0.0000 0.3333 0.0000  plane waves:   91327
 k-point  4 :   0.3333 0.3333 0.0000  plane waves:   91329
 k-point  5 :  -0.3333 0.3333 0.0000  plane waves:   91327

 maximum and minimum number of plane-waves per node :     15266    15131

 maximum number of plane-waves:     91329
 maximum index in each direction: 
   IXMAX=   19   IYMAX=   19   IZMAX=   69
   IXMIN=  -19   IYMIN=  -19   IZMIN=  -69

 NGX is ok and might be reduce to  78
 NGY is ok and might be reduce to  78
 NGZ is ok and might be reduce to 278

 real space projection operators:
  total allocation   :        746.52 KBytes
  max/ min on nodes  :        154.41        108.74


 parallel 3D FFT for wavefunctions:
    minimum data exchange during FFTs selected (reduces bandwidth)
 parallel 3D FFT for charge:
    minimum data exchange during FFTs selected (reduces bandwidth)


 total amount of memory used by VASP on root node   210524. kBytes
========================================================================

   base      :      30000. kBytes
   nonlr-proj:        524. kBytes
   fftplans  :      99677. kBytes
   grid      :      75443. kBytes
   one-center:          6. kBytes
   wavefun   :       4874. kBytes
 
 Broyden mixing: mesh for mixing (old mesh)
   NGX = 39   NGY = 39   NGZ =139
  (NGX  =160   NGY  =160   NGZ  =560)
  gives a total of 211419 points

 initial charge density was supplied:
 charge density of overlapping atoms calculated
 number of electron       8.0000000 magnetization       0.0000000
 keeping initial charge density in first step


--------------------------------------------------------------------------------------------------------


 Maximum index for non-local projection operator          784
 Maximum index for augmentation-charges         2801 (set IRDMAX)


--------------------------------------------------------------------------------------------------------


 First call to EWALD:  gamma=   0.118
 Maximum number of real-space cells 4x 4x 1
 Maximum number of reciprocal cells 2x 2x 6

 FEWALD executed in parallel
    FEWALD:  cpu time    0.00: real time    0.00


----------------------------------------- Iteration    1(   1)  ---------------------------------------


    POTLOK:  cpu time    3.23: real time    3.23
    SETDIJ:  cpu time    2.12: real time    2.12
     EDDAV:  cpu time    5.01: real time    5.05
       DOS:  cpu time    0.00: real time    0.00
    --------------------------------------------
      LOOP:  cpu time   10.36: real time   10.42

 eigenvalue-minimisations  :   160
 total energy-change (2. order) : 0.5656115E+02  (-0.1080613E+03)
 number of electron       8.0000000 magnetization       0.0000000
 augmentation part        8.0000000 magnetization       0.0000000

 Free energy of the ion-electron system (eV)
  ---------------------------------------------------
  alpha Z        PSCENC =         0.07142745
  Ewald energy   TEWEN  =       268.22411623
  -1/2 Hartree   DENC   =      -381.99594945
  -exchange  EXHF       =         0.00000000
  -V(xc)+E(xc)   XCENC  =        22.01508185
  PAW double counting   =       117.05815537     -117.66307232
  entropy T*S    EENTRO =        -0.05130453
  eigenvalues    EBANDS =       -48.19407713
  atomic energy  EATOM  =       197.09677683
  ---------------------------------------------------
  free energy    TOTEN  =        56.56115430 eV

  energy without entropy =       56.61245883  energy(sigma->0) =       56.58680656


--------------------------------------------------------------------------------------------------------




----------------------------------------- Iteration    1(   2)  ---------------------------------------


     EDDAV:  cpu time    7.20: real time    7.22
       DOS:  cpu time    0.00: real time    0.00
    --------------------------------------------
      LOOP:  cpu time    7.21: real time    7.23

 eigenvalue-minimisations  :   264
 total energy-change (2. order) :-0.5776985E+02  (-0.5446295E+02)
 number of electron       8.0000000 magnetization       0.0000000
 augmentation part        8.0000000 magnetization       0.0000000

 Free energy of the ion-electron system (eV)
  ---------------------------------------------------
  alpha Z        PSCENC =         0.07142745
  Ewald energy   TEWEN  =       268.22411623
  -1/2 Hartree   DENC   =      -381.99594945
  -exchange  EXHF       =         0.00000000
  -V(xc)+E(xc)   XCENC  =        22.01508185
  PAW double counting   =       117.05815537     -117.66307232
  entropy T*S    EENTRO =         0.00000000
  eigenvalues    EBANDS =      -106.01523152
  atomic energy  EATOM  =       197.09677683
  ---------------------------------------------------
  free energy    TOTEN  =        -1.20869556 eV

  energy without entropy =       -1.20869556  energy(sigma->0) =       -1.20869556


--------------------------------------------------------------------------------------------------------




----------------------------------------- Iteration    1(   3)  ---------------------------------------


     EDDAV:  cpu time    5.21: real time    5.22
       DOS:  cpu time    0.00: real time    0.00
    --------------------------------------------
      LOOP:  cpu time    5.22: real time    5.23

 eigenvalue-minimisations  :   176
 total energy-change (2. order) :-0.2436003E+02  (-0.2436003E+02)
 number of electron       8.0000000 magnetization       0.0000000
 augmentation part        8.0000000 magnetization       0.0000000

 Free energy of the ion-electron system (eV)
  ---------------------------------------------------
  alpha Z        PSCENC =         0.07142745
  Ewald energy   TEWEN  =       268.22411623
  -1/2 Hartree   DENC   =      -381.99594945
  -exchange  EXHF       =         0.00000000
  -V(xc)+E(xc)   XCENC  =        22.01508185
  PAW double counting   =       117.05815537     -117.66307232
  entropy T*S    EENTRO =         0.00000000
  eigenvalues    EBANDS =      -130.37526458
  atomic energy  EATOM  =       197.09677683
  ---------------------------------------------------
  free energy    TOTEN  =       -25.56872862 eV

  energy without entropy =      -25.56872862  energy(sigma->0) =      -25.56872862


--------------------------------------------------------------------------------------------------------




----------------------------------------- Iteration    1(   4)  ---------------------------------------


     EDDAV:  cpu time    4.87: real time    4.88
       DOS:  cpu time    0.00: real time    0.00
    --------------------------------------------
      LOOP:  cpu time    4.87: real time    4.89

 eigenvalue-minimisations  :   160
 total energy-change (2. order) :-0.1962349E+01  (-0.1962349E+01)
 number of electron       8.0000000 magnetization       0.0000000
 augmentation part        8.0000000 magnetization       0.0000000

 Free energy of the ion-electron system (eV)
  ---------------------------------------------------
  alpha Z        PSCENC =         0.07142745
  Ewald energy   TEWEN  =       268.22411623
  -1/2 Hartree   DENC   =      -381.99594945
  -exchange  EXHF       =         0.00000000
  -V(xc)+E(xc)   XCENC  =        22.01508185
  PAW double counting   =       117.05815537     -117.66307232
  entropy T*S    EENTRO =         0.00000000
  eigenvalues    EBANDS =      -132.33761315
  atomic energy  EATOM  =       197.09677683
  ---------------------------------------------------
  free energy    TOTEN  =       -27.53107720 eV

  energy without entropy =      -27.53107720  energy(sigma->0) =      -27.53107720


--------------------------------------------------------------------------------------------------------




----------------------------------------- Iteration    1(   5)  ---------------------------------------


     EDDAV:  cpu time    8.51: real time    8.58
       DOS:  cpu time    0.00: real time    0.00
    CHARGE:  cpu time    2.24: real time    2.24
    MIXING:  cpu time    0.06: real time    0.06
    --------------------------------------------
      LOOP:  cpu time   10.82: real time   10.90

 eigenvalue-minimisations  :   320
 total energy-change (2. order) :-0.6967773E-01  (-0.6967774E-01)
 number of electron       8.0000000 magnetization       0.0000000
 augmentation part        0.2284427 magnetization       0.0000032

 Broyden mixing:
  rms(total) = 0.87481E+00    rms(broyden)= 0.87471E+00
  rms(prec ) = 0.90651E+00
  weight for this iteration     100.00

 Free energy of the ion-electron system (eV)
  ---------------------------------------------------
  alpha Z        PSCENC =         0.07142745
  Ewald energy   TEWEN  =       268.22411623
  -1/2 Hartree   DENC   =      -381.99594945
  -exchange  EXHF       =         0.00000000
  -V(xc)+E(xc)   XCENC  =        22.01508185
  PAW double counting   =       117.05815537     -117.66307232
  entropy T*S    EENTRO =         0.00000000
  eigenvalues    EBANDS =      -132.40729089
  atomic energy  EATOM  =       197.09677683
  ---------------------------------------------------
  free energy    TOTEN  =       -27.60075493 eV

  energy without entropy =      -27.60075493  energy(sigma->0) =      -27.60075493


--------------------------------------------------------------------------------------------------------




----------------------------------------- Iteration    1(   6)  ---------------------------------------


    POTLOK:  cpu time    3.28: real time    3.28
    SETDIJ:  cpu time    2.14: real time    2.14
     EDDAV:  cpu time    6.88: real time    6.89
       DOS:  cpu time    0.00: real time    0.00
    CHARGE:  cpu time    2.20: real time    2.20
    MIXING:  cpu time    0.06: real time    0.06
    --------------------------------------------
      LOOP:  cpu time   14.56: real time   14.58

 eigenvalue-minimisations  :   248
 total energy-change (2. order) : 0.2286306E+01  (-0.3570572E+00)
 number of electron       8.0000000 magnetization       0.0000000
 augmentation part        0.2100091 magnetization       0.0000002

 Broyden mixing:
  rms(total) = 0.58263E+00    rms(broyden)= 0.58262E+00
  rms(prec ) = 0.59925E+00
  weight for this iteration     100.00

 eigenvalues of (default mixing * dielectric matrix)
  average eigenvalue GAMMA=   1.9602
  1.9602

 Free energy of the ion-electron system (eV)
  ---------------------------------------------------
  alpha Z        PSCENC =         0.07142745
  Ewald energy   TEWEN  =       268.22411623
  -1/2 Hartree   DENC   =      -396.41357582
  -exchange  EXHF       =         0.00000000
  -V(xc)+E(xc)   XCENC  =        22.85746631
  PAW double counting   =       171.61251256     -172.30856853
  entropy T*S    EENTRO =         0.00000000
  eigenvalues    EBANDS =      -116.45460386
  atomic energy  EATOM  =       197.09677683
  ---------------------------------------------------
  free energy    TOTEN  =       -25.31444884 eV

  energy without entropy =      -25.31444884  energy(sigma->0) =      -25.31444884


--------------------------------------------------------------------------------------------------------




----------------------------------------- Iteration    1(   7)  ---------------------------------------


    POTLOK:  cpu time    3.24: real time    3.25
    SETDIJ:  cpu time    2.13: real time    2.14
     EDDAV:  cpu time    7.20: real time    7.22
       DOS:  cpu time    0.00: real time    0.00
    CHARGE:  cpu time    2.20: real time    2.21
    MIXING:  cpu time    0.06: real time    0.06
    --------------------------------------------
      LOOP:  cpu time   14.84: real time   14.88

 eigenvalue-minimisations  :   264
 total energy-change (2. order) : 0.1092522E+01  (-0.3968380E+00)
 number of electron       8.0000000 magnetization       0.0000000
 augmentation part        0.1908153 magnetization      -0.0000140

 Broyden mixing:
  rms(total) = 0.34197E+00    rms(broyden)= 0.34195E+00
  rms(prec ) = 0.34573E+00
  weight for this iteration     100.00

 eigenvalues of (default mixing * dielectric matrix)
  average eigenvalue GAMMA=   2.9218
  2.1304  3.7132

 Free energy of the ion-electron system (eV)
  ---------------------------------------------------
  alpha Z        PSCENC =         0.07142745
  Ewald energy   TEWEN  =       268.22411623
  -1/2 Hartree   DENC   =      -414.41597944
  -exchange  EXHF       =         0.00000000
  -V(xc)+E(xc)   XCENC  =        23.98440166
  PAW double counting   =       280.45369523     -281.23940252
  entropy T*S    EENTRO =         0.00000000
  eigenvalues    EBANDS =       -98.39696227
  atomic energy  EATOM  =       197.09677683
  ---------------------------------------------------
  free energy    TOTEN  =       -24.22192684 eV

  energy without entropy =      -24.22192684  energy(sigma->0) =      -24.22192684


--------------------------------------------------------------------------------------------------------




----------------------------------------- Iteration    1(   8)  ---------------------------------------


    POTLOK:  cpu time    3.26: real time    3.32
    SETDIJ:  cpu time    2.17: real time    2.17
     EDDAV:  cpu time    7.48: real time    7.50
       DOS:  cpu time    0.00: real time    0.00
    CHARGE:  cpu time    2.21: real time    2.21
    MIXING:  cpu time    0.06: real time    0.06
    --------------------------------------------
      LOOP:  cpu time   15.19: real time   15.28

 eigenvalue-minimisations  :   272
 total energy-change (2. order) : 0.1771011E+00  (-0.2251974E-01)
 number of electron       8.0000000 magnetization       0.0000000
 augmentation part        0.1885145 magnetization       0.0000014

 Broyden mixing:
  rms(total) = 0.41663E-01    rms(broyden)= 0.41658E-01
  rms(prec ) = 0.42224E-01
  weight for this iteration     100.00

 eigenvalues of (default mixing * dielectric matrix)
  average eigenvalue GAMMA=   2.3934
  4.2003  0.9462  2.0337

 Free energy of the ion-electron system (eV)
  ---------------------------------------------------
  alpha Z        PSCENC =         0.07142745
  Ewald energy   TEWEN  =       268.22411623
  -1/2 Hartree   DENC   =      -421.79051463
  -exchange  EXHF       =         0.00000000
  -V(xc)+E(xc)   XCENC  =        24.65584712
  PAW double counting   =       432.90161509     -433.68921283
  entropy T*S    EENTRO =         0.00000000
  eigenvalues    EBANDS =       -91.51488098
  atomic energy  EATOM  =       197.09677683
  ---------------------------------------------------
  free energy    TOTEN  =       -24.04482573 eV

  energy without entropy =      -24.04482573  energy(sigma->0) =      -24.04482573


--------------------------------------------------------------------------------------------------------




----------------------------------------- Iteration    1(   9)  ---------------------------------------


    POTLOK:  cpu time    3.28: real time    3.28
    SETDIJ:  cpu time    2.13: real time    2.13
     EDDAV:  cpu time    5.77: real time    5.79
       DOS:  cpu time    0.00: real time    0.00
    CHARGE:  cpu time    2.20: real time    2.20
    MIXING:  cpu time    0.07: real time    0.06
    --------------------------------------------
      LOOP:  cpu time   13.45: real time   13.48

 eigenvalue-minimisations  :   200
 total energy-change (2. order) : 0.2796237E-02  (-0.1112508E-02)
 number of electron       8.0000000 magnetization       0.0000000
 augmentation part        0.1875087 magnetization       0.0000076

 Broyden mixing:
  rms(total) = 0.18495E-01    rms(broyden)= 0.18493E-01
  rms(prec ) = 0.18526E-01
  weight for this iteration     100.00

 eigenvalues of (default mixing * dielectric matrix)
  average eigenvalue GAMMA=   3.0442
  4.5659  4.5659  1.0056  2.0395

 Free energy of the ion-electron system (eV)
  ---------------------------------------------------
  alpha Z        PSCENC =         0.07142745
  Ewald energy   TEWEN  =       268.22411623
  -1/2 Hartree   DENC   =      -423.23726729
  -exchange  EXHF       =         0.00000000
  -V(xc)+E(xc)   XCENC  =        24.76852803
  PAW double counting   =       456.32148553     -457.11534642
  entropy T*S    EENTRO =         0.00000000
  eigenvalues    EBANDS =       -90.17174985
  atomic energy  EATOM  =       197.09677683
  ---------------------------------------------------
  free energy    TOTEN  =       -24.04202949 eV

  energy without entropy =      -24.04202949  energy(sigma->0) =      -24.04202949


--------------------------------------------------------------------------------------------------------




----------------------------------------- Iteration    1(  10)  ---------------------------------------


    POTLOK:  cpu time    3.25: real time    3.26
    SETDIJ:  cpu time    2.14: real time    2.14
     EDDAV:  cpu time    6.84: real time    6.85
       DOS:  cpu time    0.00: real time    0.00
    CHARGE:  cpu time    2.15: real time    2.22
    MIXING:  cpu time    0.07: real time    0.07
    --------------------------------------------
      LOOP:  cpu time   14.46: real time   14.55

 eigenvalue-minimisations  :   248
 total energy-change (2. order) :-0.3699691E-03  (-0.1116404E-03)
 number of electron       8.0000000 magnetization       0.0000000
 augmentation part        0.1875944 magnetization       0.0000032

 Broyden mixing:
  rms(total) = 0.13915E-01    rms(broyden)= 0.13915E-01
  rms(prec ) = 0.14079E-01
  weight for this iteration     100.00

 eigenvalues of (default mixing * dielectric matrix)
  average eigenvalue GAMMA=   2.6279
  4.9158  3.8679  2.0250  0.9888  1.3419

 Free energy of the ion-electron system (eV)
  ---------------------------------------------------
  alpha Z        PSCENC =         0.07142745
  Ewald energy   TEWEN  =       268.22411623
  -1/2 Hartree   DENC   =      -422.83338199
  -exchange  EXHF       =         0.00000000
  -V(xc)+E(xc)   XCENC  =        24.72577487
  PAW double counting   =       457.42768805     -458.22815531
  entropy T*S    EENTRO =         0.00000000
  eigenvalues    EBANDS =       -90.52664558
  atomic energy  EATOM  =       197.09677683
  ---------------------------------------------------
  free energy    TOTEN  =       -24.04239946 eV

  energy without entropy =      -24.04239946  energy(sigma->0) =      -24.04239946


--------------------------------------------------------------------------------------------------------




----------------------------------------- Iteration    1(  11)  ---------------------------------------


    POTLOK:  cpu time    3.30: real time    3.30
    SETDIJ:  cpu time    2.18: real time    2.18
     EDDAV:  cpu time    5.96: real time    5.97
       DOS:  cpu time    0.00: real time    0.00
    CHARGE:  cpu time    2.20: real time    2.20
    MIXING:  cpu time    0.08: real time    0.08
    --------------------------------------------
      LOOP:  cpu time   13.72: real time   13.75

 eigenvalue-minimisations  :   208
 total energy-change (2. order) : 0.2909847E-03  (-0.7163143E-04)
 number of electron       8.0000000 magnetization       0.0000000
 augmentation part        0.1874837 magnetization      -0.0000007

 Broyden mixing:
  rms(total) = 0.25850E-02    rms(broyden)= 0.25846E-02
  rms(prec ) = 0.25956E-02
  weight for this iteration     100.00

 eigenvalues of (default mixing * dielectric matrix)
  average eigenvalue GAMMA=   2.4143
  4.9387  4.1636  2.0202  1.4877  0.9378  0.9378

 Free energy of the ion-electron system (eV)
  ---------------------------------------------------
  alpha Z        PSCENC =         0.07142745
  Ewald energy   TEWEN  =       268.22411623
  -1/2 Hartree   DENC   =      -423.19472987
  -exchange  EXHF       =         0.00000000
  -V(xc)+E(xc)   XCENC  =        24.76174207
  PAW double counting   =       464.29227634     -465.09179289
  entropy T*S    EENTRO =         0.00000000
  eigenvalues    EBANDS =       -90.20192462
  atomic energy  EATOM  =       197.09677683
  ---------------------------------------------------
  free energy    TOTEN  =       -24.04210848 eV

  energy without entropy =      -24.04210848  energy(sigma->0) =      -24.04210848


--------------------------------------------------------------------------------------------------------




----------------------------------------- Iteration    1(  12)  ---------------------------------------


    POTLOK:  cpu time    3.27: real time    3.27
    SETDIJ:  cpu time    2.13: real time    2.14
     EDDAV:  cpu time    6.49: real time    6.49
       DOS:  cpu time    0.00: real time    0.00
    --------------------------------------------
      LOOP:  cpu time   11.88: real time   11.91

 eigenvalue-minimisations  :   232
 total energy-change (2. order) : 0.2053391E-05  (-0.1352338E-05)
 number of electron       8.0000000 magnetization       0.0000000
 augmentation part        0.1874837 magnetization      -0.0000007

 Free energy of the ion-electron system (eV)
  ---------------------------------------------------
  alpha Z        PSCENC =         0.07142745
  Ewald energy   TEWEN  =       268.22411623
  -1/2 Hartree   DENC   =      -423.15121688
  -exchange  EXHF       =         0.00000000
  -V(xc)+E(xc)   XCENC  =        24.75764219
  PAW double counting   =       463.48864032     -464.28827937
  entropy T*S    EENTRO =         0.00000000
  eigenvalues    EBANDS =       -90.24121319
  atomic energy  EATOM  =       197.09677683
  ---------------------------------------------------
  free energy    TOTEN  =       -24.04210642 eV

  energy without entropy =      -24.04210642  energy(sigma->0) =      -24.04210642


--------------------------------------------------------------------------------------------------------




 average (electrostatic) potential at core
  the test charge radii are     0.6991  0.5201
  (the norm of the test charge is              1.0000)
       1 -58.0247       2 -41.5930       3 -41.5931       4 -41.5938       5 -41.5938
 
 
 
 E-fermi :  -8.8984     XC(G=0):  -0.2110     alpha+bet : -0.0621


 spin component 1

 k-point   1 :       0.0000    0.0000    0.0000
  band No.  band energies     occupation 
      1     -16.9768      1.00000
      2      -9.3819      1.00000
      3      -9.3818      1.00000
      4      -9.3801      1.00000
      5      -0.5627      0.00000
      6       0.0674      0.00000
      7       0.0794      0.00000
      8       0.3447      0.00000

 k-point   2 :       0.3333    0.0000    0.0000
  band No.  band energies     occupation 
      1     -16.9768      1.00000
      2      -9.3819      1.00000
      3      -9.3818      1.00000
      4      -9.3802      1.00000
      5      -0.3931      0.00000
      6       0.2770      0.00000
      7       0.2861      0.00000
      8       0.4163      0.00000

 k-point   3 :       0.0000    0.3333    0.0000
  band No.  band energies     occupation 
      1     -16.9768      1.00000
      2      -9.3819      1.00000
      3      -9.3818      1.00000
      4      -9.3801      1.00000
      5      -0.3927      0.00000
      6       0.2773      0.00000
      7       0.2868      0.00000
      8       0.4168      0.00000

 k-point   4 :       0.3333    0.3333    0.0000
  band No.  band energies     occupation 
      1     -16.9768      1.00000
      2      -9.3819      1.00000
      3      -9.3818      1.00000
      4      -9.3802      1.00000
      5      -0.2429      0.00000
      6       0.3574      0.00000
      7       0.3888      0.00000
      8       0.6146      0.00000

 k-point   5 :      -0.3333    0.3333    0.0000
  band No.  band energies     occupation 
      1     -16.9768      1.00000
      2      -9.3819      1.00000
      3      -9.3818      1.00000
      4      -9.3802      1.00000
      5      -0.3934      0.00000
      6       0.2772      0.00000
      7       0.2864      0.00000
      8       0.4175      0.00000

 spin component 2

 k-point   1 :       0.0000    0.0000    0.0000
  band No.  band energies     occupation 
      1     -16.9768      1.00000
      2      -9.3819      1.00000
      3      -9.3818      1.00000
      4      -9.3801      1.00000
      5      -0.5626      0.00000
      6       0.0674      0.00000
      7       0.0798      0.00000
      8       0.3448      0.00000

 k-point   2 :       0.3333    0.0000    0.0000
  band No.  band energies     occupation 
      1     -16.9768      1.00000
      2      -9.3819      1.00000
      3      -9.3818      1.00000
      4      -9.3801      1.00000
      5      -0.3930      0.00000
      6       0.2771      0.00000
      7       0.2864      0.00000
      8       0.4164      0.00000

 k-point   3 :       0.0000    0.3333    0.0000
  band No.  band energies     occupation 
      1     -16.9768      1.00000
      2      -9.3819      1.00000
      3      -9.3818      1.00000
      4      -9.3801      1.00000
      5      -0.3926      0.00000
      6       0.2773      0.00000
      7       0.2871      0.00000
      8       0.4170      0.00000

 k-point   4 :       0.3333    0.3333    0.0000
  band No.  band energies     occupation 
      1     -16.9768      1.00000
      2      -9.3819      1.00000
      3      -9.3818      1.00000
      4      -9.3801      1.00000
      5      -0.2428      0.00000
      6       0.3576      0.00000
      7       0.3889      0.00000
      8       0.6147      0.00000

 k-point   5 :      -0.3333    0.3333    0.0000
  band No.  band energies     occupation 
      1     -16.9768      1.00000
      2      -9.3819      1.00000
      3      -9.3818      1.00000
      4      -9.3801      1.00000
      5      -0.3933      0.00000
      6       0.2772      0.00000
      7       0.2867      0.00000
      8       0.4175      0.00000


--------------------------------------------------------------------------------------------------------


 soft charge-density along one line, spin component           1
         0         1         2         3         4         5         6         7         8         9
 total charge-density along one line
 
 soft charge-density along one line, spin component           2
         0         1         2         3         4         5         6         7         8         9
 total charge-density along one line
 
 pseudopotential strength for first ion, spin component:           1
 10.209  13.576   0.000   0.000   0.000   0.000   0.000   0.000
 13.576  18.053   0.000   0.000   0.000   0.000   0.000   0.000
  0.000   0.000  -4.335   0.000   0.000   8.482   0.000   0.000
  0.000   0.000   0.000  -4.335   0.000   0.000   8.482   0.000
  0.000   0.000   0.000   0.000  -4.335   0.000   0.000   8.482
  0.000   0.000   8.482   0.000   0.000 -18.732   0.000   0.000
  0.000   0.000   0.000   8.482   0.000   0.000 -18.732   0.000
  0.000   0.000   0.000   0.000   8.482   0.000   0.000 -18.732
 pseudopotential strength for first ion, spin component:           2
 10.209  13.576   0.000   0.000   0.000   0.000   0.000   0.000
 13.576  18.053   0.000   0.000   0.000   0.000   0.000   0.000
  0.000   0.000  -4.335   0.000   0.000   8.482   0.000   0.000
  0.000   0.000   0.000  -4.335   0.000   0.000   8.482   0.000
  0.000   0.000   0.000   0.000  -4.335   0.000   0.000   8.482
  0.000   0.000   8.482   0.000   0.000 -18.732   0.000   0.000
  0.000   0.000   0.000   8.482   0.000   0.000 -18.732   0.000
  0.000   0.000   0.000   0.000   8.482   0.000   0.000 -18.732
 total augmentation occupancy for first ion, spin component:           1
  7.621  -3.255   0.000   0.000   0.000   0.000   0.000   0.000
 -3.255   1.391   0.000   0.000   0.000   0.000   0.000   0.000
  0.000   0.000   1.620   0.000   0.000   0.132   0.000   0.000
  0.000   0.000   0.000   1.620   0.000   0.000   0.132   0.000
  0.000   0.000   0.000   0.000   1.620   0.000   0.000   0.132
  0.000   0.000   0.132   0.000   0.000   0.011   0.000   0.000
  0.000   0.000   0.000   0.132   0.000   0.000   0.011   0.000
  0.000   0.000   0.000   0.000   0.132   0.000   0.000   0.011
 total augmentation occupancy for first ion, spin component:           2
  0.000   0.000   0.000   0.000   0.000   0.000   0.000   0.000
  0.000   0.000   0.000   0.000   0.000   0.000   0.000   0.000
  0.000   0.000   0.000   0.000   0.000   0.000   0.000   0.000
  0.000   0.000   0.000   0.000   0.000   0.000   0.000   0.000
  0.000   0.000   0.000   0.000   0.000   0.000   0.000   0.000
  0.000   0.000   0.000   0.000   0.000   0.000   0.000   0.000
  0.000   0.000   0.000   0.000   0.000   0.000   0.000   0.000
  0.000   0.000   0.000   0.000   0.000   0.000   0.000   0.000


------------------------ aborting loop because EDIFF is reached ----------------------------------------


    CHARGE:  cpu time    2.20: real time    2.20
    FORLOC:  cpu time    0.07: real time    0.07
    FORNL :  cpu time   11.95: real time   12.03
    STRESS:  cpu time   37.72: real time   37.88
    FORCOR:  cpu time    3.04: real time    3.04
    FORHAR:  cpu time    0.42: real time    0.43
    MIXING:  cpu time    0.06: real time    0.06

  FORCE on cell =-STRESS in cart. coord.  units (eV):
  Direction    XX          YY          ZZ          XY          YZ          ZX
  --------------------------------------------------------------------------------------
  Alpha Z     0.07143     0.07143     0.07143
  Ewald     189.78133   189.83712  -111.39431     0.01141     0.00108     0.00402
  Hartree   240.66201   240.68419   -58.16448     0.00785     0.00029     0.00110
  E(xc)     -27.23038   -27.23013   -27.23022     0.00000     0.00001     0.00002
  Local    -488.86954  -488.94099   111.13975    -0.01904    -0.00119    -0.00443
  n-local   -15.86921   -15.87086   -15.87794    -0.00081    -0.00069     0.00009
  augment     0.12474     0.12470     0.12469     0.00000     0.00000     0.00000
  Kinetic   101.27010   101.25757   101.26151    -0.00033    -0.00034    -0.00124
  Fock        0.00000     0.00000     0.00000     0.00000     0.00000     0.00000
  -------------------------------------------------------------------------------------
  Total      -0.05952    -0.06697    -0.06957    -0.00093    -0.00083    -0.00044
  in kB      -0.02812    -0.03164    -0.03286    -0.00044    -0.00039    -0.00021
  external pressure =       -0.03 kB  Pullay stress =        0.00 kB


 VOLUME and BASIS-vectors are now :
 -----------------------------------------------------------------------------
  energy-cutoff  :      520.00
  volume of cell :     3391.56
      direct lattice vectors                 reciprocal lattice vectors
    10.231375098  0.000000000  0.000000000     0.097738573  0.056429391  0.000000000
    -5.115687549  8.860630751  0.000000000     0.000000000  0.112858783  0.000000000
     0.000000000  0.000000000 37.411182405     0.000000000  0.000000000  0.026729976

  length of vectors
    10.231375098 10.231375098 37.411182405     0.112858783  0.112858783  0.026729976


 FORCES acting on ions
    electron-ion (+dipol)            ewald-force                    non-local-force                 convergence-correction
 -----------------------------------------------------------------------------------------------
   0.136E-01 0.224E-01 -.679E-02   -.148E-01 -.242E-01 0.715E-02   0.262E-02 -.284E-02 -.915E-03   -.399E-03 -.715E-04 0.104E-03
   0.411E+02 -.332E+02 -.596E-01   -.454E+02 0.366E+02 0.658E-01   0.429E+01 -.347E+01 -.596E-02   -.227E-02 0.180E-02 0.224E-04
   0.176E+02 0.498E+02 -.596E-01   -.194E+02 -.550E+02 0.659E-01   0.184E+01 0.520E+01 -.594E-02   -.100E-02 -.271E-02 0.162E-04
   -.293E+02 -.829E+01 0.444E+02   0.323E+02 0.915E+01 -.489E+02   -.306E+01 -.866E+00 0.451E+01   0.158E-02 0.455E-03 -.241E-02
   -.294E+02 -.833E+01 -.443E+02   0.325E+02 0.920E+01 0.488E+02   -.307E+01 -.871E+00 -.450E+01   0.157E-02 0.460E-03 0.241E-02
 -----------------------------------------------------------------------------------------------
   0.130E-02 0.680E-03 -.295E-03   -.711E-14 -.355E-14 -.711E-14   0.192E-02 -.586E-02 -.184E-04   -.518E-03 -.640E-04 0.146E-03
 
 
 POSITION                                       TOTAL-FORCE (eV/Angst)
 -----------------------------------------------------------------------------------
      5.11620      8.64261     37.40921         0.000419     -0.003722     -0.000419
      9.37947      0.47078     37.41040        -0.000006     -0.001479      0.000315
      4.75120      7.60923     37.41041        -0.000135      0.004551      0.000325
     -4.50823      8.81461     36.51312         0.000147      0.000414      0.000904
     -4.50477      8.81559      0.89158        -0.000425      0.000236     -0.001125
 -----------------------------------------------------------------------------------
    total drift:                                0.002698     -0.005242     -0.000167


--------------------------------------------------------------------------------------------------------



  FREE ENERGIE OF THE ION-ELECTRON SYSTEM (eV)
  ---------------------------------------------------
  free  energy   TOTEN  =       -24.04210642 eV

  energy  without entropy=      -24.04210642  energy(sigma->0) =      -24.04210642
 


--------------------------------------------------------------------------------------------------------


    POTLOK:  cpu time    5.49: real time    5.50


--------------------------------------------------------------------------------------------------------




--------------------------------------------------------------------------------------------------------


  
 reached required accuracy - stopping structural energy minimisation
 writing wavefunctions
     LOOP+:  cpu time  282.61: real time  284.05
    4ORBIT:  cpu time    0.00: real time    0.00

 total amount of memory used by VASP on root node   210524. kBytes
========================================================================

   base      :      30000. kBytes
   nonlr-proj:        524. kBytes
   fftplans  :      99677. kBytes
   grid      :      75443. kBytes
   one-center:          6. kBytes
   wavefun   :       4874. kBytes
 
  
  
 General timing and accounting informations for this job:
 ========================================================
  
                  Total CPU time used (sec):      422.701
                            User time (sec):      288.081
                          System time (sec):      134.620
                         Elapsed time (sec):      425.717
  
                   Maximum memory used (kb):      304500.
                   Average memory used (kb):           0.
  
                          Minor page faults:       646811
                          Major page faults:            0
                 Voluntary context switches:        19019
