 vasp.5.3.5 31Mar14 (build Jan 14 2015 11:36:53) complex                        
  
 executed on             LinuxIFC date 2015.07.30  10:32:25
 running on   16 total cores
 distrk:  each k-point on   16 cores,    1 groups
 distr:  one band on NCORES_PER_BAND=   1 cores,   16 groups


--------------------------------------------------------------------------------------------------------


 INCAR:
 POTCAR:    PAW_PBE H 15Jun2001                   
 POTCAR:    PAW_PBE C 08Apr2002                   

 ----------------------------------------------------------------------------- 
|                                                                             |
|           W    W    AA    RRRRR   N    N  II  N    N   GGGG   !!!           |
|           W    W   A  A   R    R  NN   N  II  NN   N  G    G  !!!           |
|           W    W  A    A  R    R  N N  N  II  N N  N  G       !!!           |
|           W WW W  AAAAAA  RRRRR   N  N N  II  N  N N  G  GGG   !            |
|           WW  WW  A    A  R   R   N   NN  II  N   NN  G    G                |
|           W    W  A    A  R    R  N    N  II  N    N   GGGG   !!!           |
|                                                                             |
|      For optimal performance we recommend to set                            |
|        NCORE= 4 - approx SQRT( number of cores)                             |
|      NCORE specifies how many cores store one orbital (NPAR=cpu/NCORE).     |
|      This setting can  greatly improve the performance of VASP for DFT.     |
|      The default, NPAR=number of cores might be grossly inefficient         |
|      on modern multi-core architectures or massively parallel machines.     |
|      Do your own testing !!!!                                               |
|      Unfortunately you need to use the default for GW and RPA calculations. |
|      (for HF NCORE is supported but not extensively tested yet)             |
|                                                                             |
 ----------------------------------------------------------------------------- 

 POTCAR:    PAW_PBE H 15Jun2001                   
   VRHFIN =H: ultrasoft test                                                    
   LEXCH  = PE                                                                  
   EATOM  =    12.4884 eV,    0.9179 Ry                                         
                                                                                
   TITEL  = PAW_PBE H 15Jun2001                                                 
   LULTRA =        F    use ultrasoft PP ?                                      
   IUNSCR =        0    unscreen: 0-lin 1-nonlin 2-no                           
   RPACOR =    0.000    partial core radius                                     
   POMASS =    1.000; ZVAL   =    1.000    mass and valenz                      
   RCORE  =    1.100    outmost cutoff radius                                   
   RWIGS  =    0.700; RWIGS  =    0.370    wigner-seitz radius (au A)           
   ENMAX  =  250.000; ENMIN  =  200.000 eV                                      
   RCLOC  =    0.701    cutoff for local pot                                    
   LCOR   =        T    correct aug charges                                     
   LPAW   =        T    paw PP                                                  
   EAUG   =  400.000                                                            
   RMAX   =    1.123    core radius for proj-oper                               
   RAUG   =    1.200    factor for augmentation sphere                          
   RDEP   =    1.112    radius for radial grids                                 
   RDEPT  =    0.926    core radius for aug-charge                              
                                                                                
   Atomic configuration                                                         
    2 entries                                                                   
     n  l   j            E        occ.                                          
     1  0  0.50        -6.4927   1.0000                                         
     2  1  0.50        -3.4015   0.0000                                         
   Description                                                                  
     l       E           TYP  RCUT    TYP  RCUT                                 
     0     -6.4927494     23  1.100                                             
     0      6.8029130     23  1.100                                             
     1     -4.0817478     23  1.100                                             
  local pseudopotential read in
  atomic valenz-charges read in
  non local Contribution for L=           0  read in
    real space projection operators read in
  non local Contribution for L=           0  read in
    real space projection operators read in
  non local Contribution for L=           1  read in
    real space projection operators read in
    PAW grid and wavefunctions read in
 
   number of l-projection  operators is LMAX  =           3
   number of lm-projection operators is LMMAX =           5
 
 POTCAR:    PAW_PBE C 08Apr2002                   
   VRHFIN =C: s2p2                                                              
   LEXCH  = PE                                                                  
   EATOM  =   147.1560 eV,   10.8157 Ry                                         
                                                                                
   TITEL  = PAW_PBE C 08Apr2002                                                 
   LULTRA =        F    use ultrasoft PP ?                                      
   IUNSCR =        1    unscreen: 0-lin 1-nonlin 2-no                           
   RPACOR =    1.200    partial core radius                                     
   POMASS =   12.011; ZVAL   =    4.000    mass and valenz                      
   RCORE  =    1.500    outmost cutoff radius                                   
   RWIGS  =    1.630; RWIGS  =    0.863    wigner-seitz radius (au A)           
   ENMAX  =  400.000; ENMIN  =  300.000 eV                                      
   ICORE  =        2    local potential                                         
   LCOR   =        T    correct aug charges                                     
   LPAW   =        T    paw PP                                                  
   EAUG   =  644.873                                                            
   DEXC   =    0.000                                                            
   RMAX   =    1.529    core radius for proj-oper                               
   RAUG   =    1.300    factor for augmentation sphere                          
   RDEP   =    1.501    radius for radial grids                                 
   RDEPT  =    1.300    core radius for aug-charge                              
                                                                                
   Atomic configuration                                                         
    4 entries                                                                   
     n  l   j            E        occ.                                          
     1  0  0.50      -273.3789   2.0000                                         
     2  0  0.50       -13.7508   2.0000                                         
     2  1  0.50        -5.2854   2.0000                                         
     3  2  1.50        -5.4423   0.0000                                         
   Description                                                                  
     l       E           TYP  RCUT    TYP  RCUT                                 
     0    -13.7508458     23  1.200                                             
     0     -8.2022199     23  1.200                                             
     1     -5.2854383     23  1.500                                             
     1     34.0145650     23  1.500                                             
     2     -5.4423304      7  1.500                                             
  local pseudopotential read in
  partial core-charges read in
  partial kinetic energy density read in
  atomic valenz-charges read in
  non local Contribution for L=           0  read in
    real space projection operators read in
  non local Contribution for L=           0  read in
    real space projection operators read in
  non local Contribution for L=           1  read in
    real space projection operators read in
  non local Contribution for L=           1  read in
    real space projection operators read in
    PAW grid and wavefunctions read in
 
   number of l-projection  operators is LMAX  =           4
   number of lm-projection operators is LMMAX =           8
 
  PAW_PBE H 15Jun2001                   :
 energy of atom  1       EATOM=  -12.4884
 kinetic energy error for atom=    0.0014 (will be added to EATOM!!)
  PAW_PBE C 08Apr2002                   :
 energy of atom  2       EATOM= -147.1560
 kinetic energy error for atom=    0.0071 (will be added to EATOM!!)
 
 
 POSCAR: methane in vacuum                       
  positions in direct lattice
  velocities in cartesian coordinates
 exchange correlation table for  LEXCH =        8
   RHO(1)=    0.500       N(1)  =     2000
   RHO(2)=  100.500       N(2)  =     4000
 


--------------------------------------------------------------------------------------------------------


 ion  position               nearest neighbor table
   1  0.943  0.053  1.000-   5 1.10
   2  0.894  0.859  1.000-   5 1.10
   3  0.057  0.995  0.976-   5 1.10
   4  0.057  0.995  0.024-   5 1.10
   5  0.988  0.975  1.000-   3 1.10   4 1.10   1 1.10   2 1.10
 
  LATTYP: Found a hexagonal cell.
 ALAT       =    10.2313750982
 C/A-ratio  =     3.6565155755
  
  Lattice vectors:
  
 A1 = (  10.2313750981,   0.0000000000,   0.0000000000)
 A2 = (  -5.1156875490,   8.8606307507,   0.0000000000)
 A3 = (   0.0000000000,   0.0000000000,  37.4111824051)


Analysis of symmetry for initial positions (statically):
=====================================================================
 Subroutine PRICEL returns:
 Original cell was already a primitive cell.
 

 Routine SETGRP: Setting up the symmetry group for a 
 hexagonal supercell.


 Subroutine GETGRP returns: Found  1 space group operations
 (whereof  1 operations were pure point group operations)
 out of a pool of 24 trial point group operations.


The static configuration has the point symmetry C_1 .


Analysis of symmetry for dynamics (positions and initial velocities):
=====================================================================
 Subroutine PRICEL returns:
 Original cell was already a primitive cell.
 

 Routine SETGRP: Setting up the symmetry group for a 
 hexagonal supercell.


 Subroutine GETGRP returns: Found  1 space group operations
 (whereof  1 operations were pure point group operations)
 out of a pool of 24 trial point group operations.


The dynamic configuration has the point symmetry C_1 .


Analysis of magnetic symmetry:
=====================================================================
 Subroutine PRICEL returns:
 Original cell was already a primitive cell.
 

 Subroutine MAGSYM returns: Found  1 space group operations
 (whereof  1 operations were pure point group operations)
 out of a pool of  1 trial space group operations
 (whereof  1 operations were pure point group operations)
 and found also     1 'primitive' translations


The magnetic configuration has the point symmetry C_1 .
 
 
 KPOINTS: KPOINTS created by Atomic Simulation Env

Automatic generation of k-mesh.
Space group operators:
 irot       det(A)        alpha          n_x          n_y          n_z        tau_x        tau_y        tau_z
    1     1.000000     0.000000     1.000000     0.000000     0.000000     0.000000     0.000000     0.000000
 
 Subroutine IBZKPT returns following result:
 ===========================================
 
 Found      1 irreducible k-points:
 
 Following reciprocal coordinates:
            Coordinates               Weight
  0.000000  0.000000  0.000000      1.000000
 
 Following cartesian coordinates:
            Coordinates               Weight
  0.000000  0.000000  0.000000      1.000000
 
 
 Subroutine IBZKPT_HF returns following result:
 ==============================================
 
 Found      1 k-points in 1st BZ
 the following      1 k-points will be used (e.g. in the exchange kernel)
 Following reciprocal coordinates:   # in IRBZ
  0.000000  0.000000  0.000000       1 t-inv F


--------------------------------------------------------------------------------------------------------




 Dimension of arrays:
   k-points           NKPTS =      1   k-points in BZ     NKDIM =      1   number of bands    NBANDS=     16
   number of dos      NEDOS =    301   number of ions     NIONS =      5
   non local maximal  LDIM  =      4   non local SUM 2l+1 LMDIM =      8
   total plane-waves  NPLWV = ******
   max r-space proj   IRMAX =      1   max aug-charges    IRDMAX=   6434
   dimension x,y,z NGX =    80 NGY =   80 NGZ =  280
   dimension x,y,z NGXF=   160 NGYF=  160 NGZF=  560
   support grid    NGXF=   160 NGYF=  160 NGZF=  560
   ions per type =               4   1
 NGX,Y,Z   is equivalent  to a cutoff of  13.00, 13.00, 12.44 a.u.
 NGXF,Y,Z  is equivalent  to a cutoff of  26.00, 26.00, 24.88 a.u.


 I would recommend the setting:
   dimension x,y,z NGX =    76 NGY =   76 NGZ =  278
 SYSTEM =  unknown system                          
 POSCAR =  methane in vacuum                       

 Startparameter for this run:
   NWRITE =      2    write-flag & timer
   PREC   = accura    normal or accurate (medium, high low for compatibility)
   ISTART =      0    job   : 0-new  1-cont  2-samecut
   ICHARG =      2    charge: 1-file 2-atom 10-const
   ISPIN  =      2    spin polarized calculation?
   LNONCOLLINEAR =      F non collinear calculations
   LSORBIT =      F    spin-orbit coupling
   INIWAV =      1    electr: 0-lowe 1-rand  2-diag
   LASPH  =      F    aspherical Exc in radial PAW
   METAGGA=      F    non-selfconsistent MetaGGA calc.

 Electronic Relaxation 1
   ENCUT  =  520.0 eV  38.22 Ry    6.18 a.u.  19.02 19.02 69.56*2*pi/ulx,y,z
   ENINI  =  520.0     initial cutoff
   ENAUG  =  644.9 eV  augmentation charge cutoff
   NELM   =     60;   NELMIN=  2; NELMDL= -5     # of ELM steps 
   EDIFF  = 0.1E-05   stopping-criterion for ELM
   LREAL  =      F    real-space projection
   NLSPLINE    = F    spline interpolate recip. space projectors
   LCOMPAT=      F    compatible to vasp.4.4
   GGA_COMPAT  = T    GGA compatible to vasp.4.4-vasp.4.6
   LMAXPAW     = -100 max onsite density
   LMAXMIX     =    2 max onsite mixed and CHGCAR
   VOSKOWN=      1    Vosko Wilk Nusair interpolation
   ROPT   =    0.00000   0.00000
 Ionic relaxation
   EDIFFG = 0.1E-04   stopping-criterion for IOM
   NSW    =     85    number of steps for IOM
   NBLOCK =      1;   KBLOCK =     85    inner block; outer block 
   IBRION =      6    ionic relax: 0-MD 1-quasi-New 2-CG
   NFREE  =      2    steps in history (QN), initial steepest desc. (CG)
   ISIF   =      2    stress and relaxation
   IWAVPR =     11    prediction:  0-non 1-charg 2-wave 3-comb
   ISYM   =      2    0-nonsym 1-usesym 2-fastsym
   LCORR  =      T    Harris-Foulkes like correction to forces

   POTIM  = 0.0100    time-step for ionic-motion
   TEIN   =    0.0    initial temperature
   TEBEG  =    0.0;   TEEND  =   0.0 temperature during run
   SMASS  =  -3.00    Nose mass-parameter (am)
   estimated Nose-frequenzy (Omega)   =  0.10E-29 period in steps =****** mass=  -0.239E-26a.u.
   SCALEE = 1.0000    scale energy and forces
   NPACO  =    256;   APACO  = 16.0  distance and # of slots for P.C.
   PSTRESS=    0.0 pullay stress

  Mass of Ions in am
   POMASS =   1.00 12.01
  Ionic Valenz
   ZVAL   =   1.00  4.00
  Atomic Wigner-Seitz radii
   RWIGS  =  -1.00 -1.00
  virtual crystal weights 
   VCA    =   1.00  1.00
   NELECT =       8.0000    total number of electrons
   NUPDOWN=      -1.0000    fix difference up-down

 DOS related values:
   EMIN   =  10.00;   EMAX   =-10.00  energy-range for DOS
   EFERMI =   0.00
   ISMEAR =     0;   SIGMA  =   0.10  broadening in eV -4-tet -1-fermi 0-gaus

 Electronic relaxation 2 (details)
   IALGO  =     38    algorithm
   LDIAG  =      T    sub-space diagonalisation (order eigenvalues)
   LSUBROT=      F    optimize rotation matrix (better conditioning)
   TURBO    =      0    0=normal 1=particle mesh
   IRESTART =      0    0=no restart 2=restart with 2 vectors
   NREBOOT  =      0    no. of reboots
   NMIN     =      0    reboot dimension
   EREF     =   0.00    reference energy to select bands
   IMIX   =      4    mixing-type and parameters
     AMIX     =   0.40;   BMIX     =  1.00
     AMIX_MAG =   1.60;   BMIX_MAG =  1.00
     AMIN     =   0.10
     WC   =   100.;   INIMIX=   1;  MIXPRE=   1;  MAXMIX= -45

 Intra band minimization:
   WEIMIN = 0.0010     energy-eigenvalue tresh-hold
   EBREAK =  0.16E-07  absolut break condition
   DEPER  =   0.30     relativ break condition  

   TIME   =   0.40     timestep for ELM

  volume/ion in A,a.u.               =     678.31      4577.48
  Fermi-wavevector in a.u.,A,eV,Ry     =   0.217924  0.411816  0.646152  0.047491
  Thomas-Fermi vector in A             =   0.995420
 
 Write flags
   LWAVE  =      T    write WAVECAR
   LCHARG =      T    write CHGCAR
   LVTOT  =      F    write LOCPOT, total local potential
   LVHAR  =      F    write LOCPOT, Hartree potential only
   LELF   =      F    write electronic localiz. function (ELF)
   LORBIT =      0    0 simple, 1 ext, 2 COOP (PROOUT)


 Dipole corrections
   LMONO  =      F    monopole corrections only (constant potential shift)
   LDIPOL =      F    correct potential (dipole corrections)
   IDIPOL =      0    1-x, 2-y, 3-z, 4-all directions 
   EPSILON=  1.0000000 bulk dielectric constant

 Exchange correlation treatment:
   GGA     =    --    GGA type
   LEXCH   =     8    internal setting for exchange type
   VOSKOWN=      1    Vosko Wilk Nusair interpolation
   LHFCALC =     F    Hartree Fock is set to
   LHFONE  =     F    Hartree Fock one center treatment
   AEXX    =    0.0000 exact exchange contribution

 Linear response parameters
   LEPSILON=     F    determine dielectric tensor
   LRPA    =     F    only Hartree local field effects (RPA)
   LNABLA  =     F    use nabla operator in PAW spheres
   LVEL    =     F    velocity operator in full k-point grid
   LINTERFAST=   F  fast interpolation
   KINTER  =     0    interpolate to denser k-point grid
   CSHIFT  =0.1000    complex shift for real part using Kramers Kronig
   OMEGAMAX=  -1.0    maximum frequency
   DEG_THRESHOLD= 0.2000000E-02 threshold for treating states as degnerate
   RTIME   =    0.100 relaxation time in fs

 Orbital magnetization related:
   ORBITALMAG=     F  switch on orbital magnetization
   LCHIMAG   =     F  perturbation theory with respect to B field
   DQ        =  0.001000  dq finite difference perturbation B field



--------------------------------------------------------------------------------------------------------


 finite differences with symmetry
 charge density and potential will be updated during run
 spin polarized calculation
 Variant of blocked Davidson
 Davidson routine will perform the subspace rotation
 perform sub-space diagonalisation
    after iterative eigenvector-optimisation
 modified Broyden-mixing scheme, WC =      100.0
 initial mixing is a Kerker type mixing with AMIX =  0.4000 and BMIX =      1.0000
 Hartree-type preconditioning will be used
 using additional bands           12
 reciprocal scheme for non local part
 use partial core corrections
 calculate Harris-corrections to forces 
   (improved forces if not selfconsistent)
 use gradient corrections 
 use of overlap-Matrix (Vanderbilt PP)
 Gauss-broadening in eV      SIGMA  =   0.10


--------------------------------------------------------------------------------------------------------


  energy-cutoff  :      520.00
  volume of cell :     3391.56
      direct lattice vectors                 reciprocal lattice vectors
    10.231375098  0.000000000  0.000000000     0.097738573  0.056429391  0.000000000
    -5.115687549  8.860630751  0.000000000     0.000000000  0.112858783  0.000000000
     0.000000000  0.000000000 37.411182405     0.000000000  0.000000000  0.026729976

  length of vectors
    10.231375098 10.231375098 37.411182405     0.112858783  0.112858783  0.026729976


 
 k-points in units of 2pi/SCALE and weight: KPOINTS created by Atomic Simulation Env
   0.00000000  0.00000000  0.00000000       1.000
 
 k-points in reciprocal lattice and weights: KPOINTS created by Atomic Simulation Env
   0.00000000  0.00000000  0.00000000       1.000
 
 position of ions in fractional coordinates (direct lattice) 
   0.94330186  0.05313142  0.99997922
   0.89375983  0.85876858  0.99997923
   0.05677493  0.99480597  0.97599493
   0.05716819  0.99491641  0.02383203
   0.98774718  0.97539498  0.99994730
 
 position of ions in cartesian coordinates  (Angst):
   9.37947141  0.47077788 37.41040487
   4.75120032  7.60923129 37.41040525
  -4.50823087  8.81460833 36.51312424
  -4.50477233  8.81558694  0.89158449
   5.11619593  8.64261478 37.40921078
 


--------------------------------------------------------------------------------------------------------


 k-point  1 :   0.0000 0.0000 0.0000  plane waves:   91045

 maximum and minimum number of plane-waves per node :     91045    91045

 maximum number of plane-waves:     91045
 maximum index in each direction: 
   IXMAX=   19   IYMAX=   19   IZMAX=   69
   IXMIN=  -19   IYMIN=  -19   IZMIN=  -69

 NGX is ok and might be reduce to  78
 NGY is ok and might be reduce to  78
 NGZ is ok and might be reduce to 278

 serial   3D FFT for wavefunctions
 parallel 3D FFT for charge:
    minimum data exchange during FFTs selected (reduces bandwidth)


 total amount of memory used by VASP on root node   304680. kBytes
========================================================================

   base      :      30000. kBytes
   nonl-proj :      18939. kBytes
   fftplans  :      37348. kBytes
   grid      :     215449. kBytes
   one-center:         30. kBytes
   wavefun   :       2914. kBytes
 
     INWAV:  cpu time    0.00: real time    0.00
 Broyden mixing: mesh for mixing (old mesh)
   NGX = 39   NGY = 39   NGZ =139
  (NGX  =160   NGY  =160   NGZ  =560)
  gives a total of 211419 points

 initial charge density was supplied:
 charge density of overlapping atoms calculated
 number of electron       8.0000000 magnetization       5.0000000
 keeping initial charge density in first step


--------------------------------------------------------------------------------------------------------


 Maximum index for augmentation-charges          347 (set IRDMAX)


--------------------------------------------------------------------------------------------------------


 First call to EWALD:  gamma=   0.118
 Maximum number of real-space cells 4x 4x 1
 Maximum number of reciprocal cells 2x 2x 6

 FEWALD executed in parallel
    FEWALD:  cpu time    0.00: real time    0.01


----------------------------------------- Iteration    1(   1)  ---------------------------------------


    POTLOK:  cpu time    2.46: real time    2.52
    SETDIJ:  cpu time    0.02: real time    0.02
     EDDAV:  cpu time    1.00: real time    1.69
       DOS:  cpu time    0.00: real time    0.01
    --------------------------------------------
      LOOP:  cpu time    3.48: real time    4.24

 eigenvalue-minimisations  :    64
 total energy-change (2. order) : 0.4601215E+02  (-0.9860236E+02)
 number of electron       8.0000000 magnetization       5.0000000
 augmentation part        8.0000000 magnetization       5.0000000

 Free energy of the ion-electron system (eV)
  ---------------------------------------------------
  alpha Z        PSCENC =         0.07142745
  Ewald energy   TEWEN  =       268.22411623
  -Hartree energ DENC   =      -381.99594945
  -exchange      EXHF   =         0.00000000
  -V(xc)+E(xc)   XCENC  =        23.57763742
  PAW double counting   =       115.57111737     -116.16515559
  entropy T*S    EENTRO =        -0.01579973
  eigenvalues    EBANDS =       -60.35202327
  atomic energy  EATOM  =       197.09677683
  ---------------------------------------------------
  free energy    TOTEN  =        46.01214726 eV

  energy without entropy =       46.02794698  energy(sigma->0) =       46.02004712


--------------------------------------------------------------------------------------------------------




----------------------------------------- Iteration    1(   2)  ---------------------------------------


     EDDAV:  cpu time    1.48: real time    1.60
       DOS:  cpu time    0.00: real time    0.00
    --------------------------------------------
      LOOP:  cpu time    1.48: real time    1.61

 eigenvalue-minimisations  :   112
 total energy-change (2. order) :-0.5681078E+02  (-0.4967448E+02)
 number of electron       8.0000000 magnetization       5.0000000
 augmentation part        8.0000000 magnetization       5.0000000

 Free energy of the ion-electron system (eV)
  ---------------------------------------------------
  alpha Z        PSCENC =         0.07142745
  Ewald energy   TEWEN  =       268.22411623
  -Hartree energ DENC   =      -381.99594945
  -exchange      EXHF   =         0.00000000
  -V(xc)+E(xc)   XCENC  =        23.57763742
  PAW double counting   =       115.57111737     -116.16515559
  entropy T*S    EENTRO =        -0.00000000
  eigenvalues    EBANDS =      -117.17860782
  atomic energy  EATOM  =       197.09677683
  ---------------------------------------------------
  free energy    TOTEN  =       -10.79863757 eV

  energy without entropy =      -10.79863757  energy(sigma->0) =      -10.79863757


--------------------------------------------------------------------------------------------------------




----------------------------------------- Iteration    1(   3)  ---------------------------------------


     EDDAV:  cpu time    0.97: real time    0.97
       DOS:  cpu time    0.00: real time    0.00
    --------------------------------------------
      LOOP:  cpu time    0.98: real time    0.98

 eigenvalue-minimisations  :    64
 total energy-change (2. order) :-0.8827426E+01  (-0.8827426E+01)
 number of electron       8.0000000 magnetization       5.0000000
 augmentation part        8.0000000 magnetization       5.0000000

 Free energy of the ion-electron system (eV)
  ---------------------------------------------------
  alpha Z        PSCENC =         0.07142745
  Ewald energy   TEWEN  =       268.22411623
  -Hartree energ DENC   =      -381.99594945
  -exchange      EXHF   =         0.00000000
  -V(xc)+E(xc)   XCENC  =        23.57763742
  PAW double counting   =       115.57111737     -116.16515559
  entropy T*S    EENTRO =        -0.00000000
  eigenvalues    EBANDS =      -126.00603391
  atomic energy  EATOM  =       197.09677683
  ---------------------------------------------------
  free energy    TOTEN  =       -19.62606366 eV

  energy without entropy =      -19.62606366  energy(sigma->0) =      -19.62606366


--------------------------------------------------------------------------------------------------------




----------------------------------------- Iteration    1(   4)  ---------------------------------------


     EDDAV:  cpu time    1.32: real time    1.32
       DOS:  cpu time    0.00: real time    0.00
    --------------------------------------------
      LOOP:  cpu time    1.32: real time    1.33

 eigenvalue-minimisations  :    96
 total energy-change (2. order) :-0.3187195E+00  (-0.3187195E+00)
 number of electron       8.0000000 magnetization       5.0000000
 augmentation part        8.0000000 magnetization       5.0000000

 Free energy of the ion-electron system (eV)
  ---------------------------------------------------
  alpha Z        PSCENC =         0.07142745
  Ewald energy   TEWEN  =       268.22411623
  -Hartree energ DENC   =      -381.99594945
  -exchange      EXHF   =         0.00000000
  -V(xc)+E(xc)   XCENC  =        23.57763742
  PAW double counting   =       115.57111737     -116.16515559
  entropy T*S    EENTRO =        -0.00000000
  eigenvalues    EBANDS =      -126.32475342
  atomic energy  EATOM  =       197.09677683
  ---------------------------------------------------
  free energy    TOTEN  =       -19.94478317 eV

  energy without entropy =      -19.94478317  energy(sigma->0) =      -19.94478317


--------------------------------------------------------------------------------------------------------




----------------------------------------- Iteration    1(   5)  ---------------------------------------


     EDDAV:  cpu time    1.31: real time    1.31
       DOS:  cpu time    0.00: real time    0.00
    CHARGE:  cpu time    0.37: real time    0.37
    MIXING:  cpu time    0.04: real time    0.04
    --------------------------------------------
      LOOP:  cpu time    1.72: real time    1.73

 eigenvalue-minimisations  :    96
 total energy-change (2. order) :-0.2043142E-02  (-0.2043142E-02)
 number of electron       7.9999999 magnetization       4.7805345
 augmentation part        0.2297902 magnetization       4.7795711

 Broyden mixing:
  rms(total) = 0.15358E+01    rms(broyden)= 0.15357E+01
  rms(prec ) = 0.15586E+01
  weight for this iteration     100.00

 Free energy of the ion-electron system (eV)
  ---------------------------------------------------
  alpha Z        PSCENC =         0.07142745
  Ewald energy   TEWEN  =       268.22411623
  -Hartree energ DENC   =      -381.99594945
  -exchange      EXHF   =         0.00000000
  -V(xc)+E(xc)   XCENC  =        23.57763742
  PAW double counting   =       115.57111737     -116.16515559
  entropy T*S    EENTRO =        -0.00000000
  eigenvalues    EBANDS =      -126.32679656
  atomic energy  EATOM  =       197.09677683
  ---------------------------------------------------
  free energy    TOTEN  =       -19.94682631 eV

  energy without entropy =      -19.94682631  energy(sigma->0) =      -19.94682631


--------------------------------------------------------------------------------------------------------




----------------------------------------- Iteration    1(   6)  ---------------------------------------


    POTLOK:  cpu time    2.44: real time    2.44
    SETDIJ:  cpu time    0.02: real time    0.02
     EDDAV:  cpu time    1.14: real time    1.14
       DOS:  cpu time    0.00: real time    0.00
    CHARGE:  cpu time    0.37: real time    0.37
    MIXING:  cpu time    0.04: real time    0.10
    --------------------------------------------
      LOOP:  cpu time    4.01: real time    4.09

 eigenvalue-minimisations  :    80
 total energy-change (2. order) : 0.1173183E+02  (-0.4213965E+01)
 number of electron       7.9999999 magnetization       4.5868756
 augmentation part        0.2096869 magnetization       4.5642120

 Broyden mixing:
  rms(total) = 0.68339E+00    rms(broyden)= 0.68329E+00
  rms(prec ) = 0.69300E+00
  weight for this iteration     100.00

 eigenvalues of (default mixing * dielectric matrix)
  average eigenvalue GAMMA=   0.8666
  0.8666

 Free energy of the ion-electron system (eV)
  ---------------------------------------------------
  alpha Z        PSCENC =         0.07142745
  Ewald energy   TEWEN  =       268.22411623
  -Hartree energ DENC   =      -403.85688401
  -exchange      EXHF   =         0.00000000
  -V(xc)+E(xc)   XCENC  =        36.89361594
  PAW double counting   =       240.11047771     -240.91717595
  entropy T*S    EENTRO =        -0.00000000
  eigenvalues    EBANDS =      -105.83734666
  atomic energy  EATOM  =       197.09677683
  ---------------------------------------------------
  free energy    TOTEN  =        -8.21499247 eV

  energy without entropy =       -8.21499247  energy(sigma->0) =       -8.21499247


--------------------------------------------------------------------------------------------------------




----------------------------------------- Iteration    1(   7)  ---------------------------------------


    POTLOK:  cpu time    2.43: real time    2.44
    SETDIJ:  cpu time    0.02: real time    0.02
     EDDAV:  cpu time    1.48: real time    1.48
       DOS:  cpu time    0.00: real time    0.00
    CHARGE:  cpu time    0.37: real time    0.38
    MIXING:  cpu time    0.04: real time    0.07
    --------------------------------------------
      LOOP:  cpu time    4.35: real time    4.40

 eigenvalue-minimisations  :   112
 total energy-change (2. order) :-0.9605415E+01  (-0.7459374E+00)
 number of electron       7.9999999 magnetization       4.3610946
 augmentation part        0.1950688 magnetization       4.3490910

 Broyden mixing:
  rms(total) = 0.42626E+00    rms(broyden)= 0.42624E+00
  rms(prec ) = 0.43120E+00
  weight for this iteration     100.00

 eigenvalues of (default mixing * dielectric matrix)
  average eigenvalue GAMMA=   0.9099
  0.9099  0.9099

 Free energy of the ion-electron system (eV)
  ---------------------------------------------------
  alpha Z        PSCENC =         0.07142745
  Ewald energy   TEWEN  =       268.22411623
  -Hartree energ DENC   =      -412.59833143
  -exchange      EXHF   =         0.00000000
  -V(xc)+E(xc)   XCENC  =        29.40976288
  PAW double counting   =       332.72220183     -333.56109050
  entropy T*S    EENTRO =        -0.00000000
  eigenvalues    EBANDS =       -99.18527088
  atomic energy  EATOM  =       197.09677683
  ---------------------------------------------------
  free energy    TOTEN  =       -17.82040760 eV

  energy without entropy =      -17.82040760  energy(sigma->0) =      -17.82040760


--------------------------------------------------------------------------------------------------------




----------------------------------------- Iteration    1(   8)  ---------------------------------------


    POTLOK:  cpu time    2.45: real time    2.46
    SETDIJ:  cpu time    0.02: real time    0.02
     EDDAV:  cpu time    1.48: real time    1.49
       DOS:  cpu time    0.00: real time    0.00
    CHARGE:  cpu time    0.37: real time    0.37
    MIXING:  cpu time    0.04: real time    0.04
    --------------------------------------------
      LOOP:  cpu time    4.37: real time    4.38

 eigenvalue-minimisations  :   112
 total energy-change (2. order) :-0.1637010E+01  (-0.4976151E-01)
 number of electron       7.9999999 magnetization       4.0388077
 augmentation part        0.1939586 magnetization       4.0306057

 Broyden mixing:
  rms(total) = 0.25033E+00    rms(broyden)= 0.25032E+00
  rms(prec ) = 0.25317E+00
  weight for this iteration     100.00

 eigenvalues of (default mixing * dielectric matrix)
  average eigenvalue GAMMA=   1.1551
  1.7698  1.0334  0.6622

 Free energy of the ion-electron system (eV)
  ---------------------------------------------------
  alpha Z        PSCENC =         0.07142745
  Ewald energy   TEWEN  =       268.22411623
  -Hartree energ DENC   =      -416.55195906
  -exchange      EXHF   =         0.00000000
  -V(xc)+E(xc)   XCENC  =        28.22266600
  PAW double counting   =       407.09243243     -407.90618668
  entropy T*S    EENTRO =        -0.00000000
  eigenvalues    EBANDS =       -95.70669075
  atomic energy  EATOM  =       197.09677683
  ---------------------------------------------------
  free energy    TOTEN  =       -19.45741755 eV

  energy without entropy =      -19.45741755  energy(sigma->0) =      -19.45741755


--------------------------------------------------------------------------------------------------------




----------------------------------------- Iteration    1(   9)  ---------------------------------------


    POTLOK:  cpu time    2.44: real time    2.44
    SETDIJ:  cpu time    0.02: real time    0.02
     EDDAV:  cpu time    0.97: real time    0.97
       DOS:  cpu time    0.00: real time    0.00
    CHARGE:  cpu time    0.38: real time    0.37
    MIXING:  cpu time    0.04: real time    0.04
    --------------------------------------------
      LOOP:  cpu time    3.84: real time    3.85

 eigenvalue-minimisations  :    64
 total energy-change (2. order) :-0.2914677E+01  (-0.1044054E+00)
 number of electron       7.9999999 magnetization       3.8467767
 augmentation part        0.1904615 magnetization       3.8413362

 Broyden mixing:
  rms(total) = 0.11969E+00    rms(broyden)= 0.11968E+00
  rms(prec ) = 0.12040E+00
  weight for this iteration     100.00

 eigenvalues of (default mixing * dielectric matrix)
  average eigenvalue GAMMA=   1.1468
  1.9178  1.1235  0.9146  0.6311

 Free energy of the ion-electron system (eV)
  ---------------------------------------------------
  alpha Z        PSCENC =         0.07142745
  Ewald energy   TEWEN  =       268.22411623
  -Hartree energ DENC   =      -421.20405949
  -exchange      EXHF   =         0.00000000
  -V(xc)+E(xc)   XCENC  =        26.08588610
  PAW double counting   =       477.08467829     -477.88574085
  entropy T*S    EENTRO =        -0.00000000
  eigenvalues    EBANDS =       -91.84517882
  atomic energy  EATOM  =       197.09677683
  ---------------------------------------------------
  free energy    TOTEN  =       -22.37209426 eV

  energy without entropy =      -22.37209426  energy(sigma->0) =      -22.37209426


--------------------------------------------------------------------------------------------------------




----------------------------------------- Iteration    1(  10)  ---------------------------------------


    POTLOK:  cpu time    2.44: real time    2.44
    SETDIJ:  cpu time    0.02: real time    0.02
     EDDAV:  cpu time    1.14: real time    1.17
       DOS:  cpu time    0.00: real time    0.00
    CHARGE:  cpu time    0.38: real time    0.38
    MIXING:  cpu time    0.04: real time    0.06
    --------------------------------------------
      LOOP:  cpu time    4.01: real time    4.06

 eigenvalue-minimisations  :    80
 total energy-change (2. order) :-0.4946698E+00  (-0.6856935E-02)
 number of electron       7.9999999 magnetization       3.4886599
 augmentation part        0.1890523 magnetization       3.4848047

 Broyden mixing:
  rms(total) = 0.10455E+00    rms(broyden)= 0.10455E+00
  rms(prec ) = 0.10502E+00
  weight for this iteration     100.00

 eigenvalues of (default mixing * dielectric matrix)
  average eigenvalue GAMMA=   1.1178
  1.8218  1.4607  0.6272  0.8397  0.8397

 Free energy of the ion-electron system (eV)
  ---------------------------------------------------
  alpha Z        PSCENC =         0.07142745
  Ewald energy   TEWEN  =       268.22411623
  -Hartree energ DENC   =      -422.18659477
  -exchange      EXHF   =         0.00000000
  -V(xc)+E(xc)   XCENC  =        25.72368008
  PAW double counting   =       480.19203601     -480.99311162
  entropy T*S    EENTRO =        -0.00000000
  eigenvalues    EBANDS =       -90.99509425
  atomic energy  EATOM  =       197.09677683
  ---------------------------------------------------
  free energy    TOTEN  =       -22.86676405 eV

  energy without entropy =      -22.86676405  energy(sigma->0) =      -22.86676405


--------------------------------------------------------------------------------------------------------




----------------------------------------- Iteration    1(  11)  ---------------------------------------


    POTLOK:  cpu time    2.43: real time    2.44
    SETDIJ:  cpu time    0.02: real time    0.02
     EDDAV:  cpu time    0.97: real time    0.98
       DOS:  cpu time    0.00: real time    0.00
    CHARGE:  cpu time    0.37: real time    0.37
    MIXING:  cpu time    0.04: real time    0.04
    --------------------------------------------
      LOOP:  cpu time    3.84: real time    3.86

 eigenvalue-minimisations  :    64
 total energy-change (2. order) :-0.2667762E+00  (-0.2331829E-02)
 number of electron       7.9999999 magnetization       2.6581792
 augmentation part        0.1889853 magnetization       2.6550161

 Broyden mixing:
  rms(total) = 0.84183E-01    rms(broyden)= 0.84183E-01
  rms(prec ) = 0.84389E-01
  weight for this iteration     100.00

 eigenvalues of (default mixing * dielectric matrix)
  average eigenvalue GAMMA=   1.5305
  3.7423  2.0037  1.1498  0.9222  0.7307  0.6341

 Free energy of the ion-electron system (eV)
  ---------------------------------------------------
  alpha Z        PSCENC =         0.07142745
  Ewald energy   TEWEN  =       268.22411623
  -Hartree energ DENC   =      -422.85913144
  -exchange      EXHF   =         0.00000000
  -V(xc)+E(xc)   XCENC  =        25.51497324
  PAW double counting   =       471.44101231     -472.23931843
  entropy T*S    EENTRO =        -0.00000000
  eigenvalues    EBANDS =       -90.38339641
  atomic energy  EATOM  =       197.09677683
  ---------------------------------------------------
  free energy    TOTEN  =       -23.13354022 eV

  energy without entropy =      -23.13354022  energy(sigma->0) =      -23.13354022


--------------------------------------------------------------------------------------------------------




----------------------------------------- Iteration    1(  12)  ---------------------------------------


    POTLOK:  cpu time    2.44: real time    2.44
    SETDIJ:  cpu time    0.02: real time    0.02
     EDDAV:  cpu time    1.32: real time    1.32
       DOS:  cpu time    0.00: real time    0.00
    CHARGE:  cpu time    0.38: real time    0.38
    MIXING:  cpu time    0.04: real time    0.04
    --------------------------------------------
      LOOP:  cpu time    4.19: real time    4.20

 eigenvalue-minimisations  :    96
 total energy-change (2. order) : 0.1787141E+00  (-0.1732327E-01)
 number of electron       7.9999999 magnetization       2.3584699
 augmentation part        0.1883077 magnetization       2.3565857

 Broyden mixing:
  rms(total) = 0.55348E-01    rms(broyden)= 0.55348E-01
  rms(prec ) = 0.55595E-01
  weight for this iteration     100.00

 eigenvalues of (default mixing * dielectric matrix)
  average eigenvalue GAMMA=   1.6473
  5.1323  1.9967  1.2654  0.9008  0.9008  0.6289  0.7061

 Free energy of the ion-electron system (eV)
  ---------------------------------------------------
  alpha Z        PSCENC =         0.07142745
  Ewald energy   TEWEN  =       268.22411623
  -Hartree energ DENC   =      -424.65031561
  -exchange      EXHF   =         0.00000000
  -V(xc)+E(xc)   XCENC  =        25.88259801
  PAW double counting   =       461.69236965     -462.48750110
  entropy T*S    EENTRO =        -0.00000000
  eigenvalues    EBANDS =       -88.78429760
  atomic energy  EATOM  =       197.09677683
  ---------------------------------------------------
  free energy    TOTEN  =       -22.95482614 eV

  energy without entropy =      -22.95482614  energy(sigma->0) =      -22.95482614


--------------------------------------------------------------------------------------------------------




----------------------------------------- Iteration    1(  13)  ---------------------------------------


    POTLOK:  cpu time    2.44: real time    2.44
    SETDIJ:  cpu time    0.02: real time    0.02
     EDDAV:  cpu time    1.51: real time    1.60
       DOS:  cpu time    0.00: real time    0.00
    CHARGE:  cpu time    0.38: real time    0.38
    MIXING:  cpu time    0.04: real time    0.04
    --------------------------------------------
      LOOP:  cpu time    4.38: real time    4.49

 eigenvalue-minimisations  :   112
 total energy-change (2. order) :-0.2670697E+00  (-0.3009576E-02)
 number of electron       7.9999999 magnetization       1.8313622
 augmentation part        0.1872791 magnetization       1.8303917

 Broyden mixing:
  rms(total) = 0.45802E-01    rms(broyden)= 0.45802E-01
  rms(prec ) = 0.46076E-01
  weight for this iteration     100.00

 eigenvalues of (default mixing * dielectric matrix)
  average eigenvalue GAMMA=   1.8133
  6.6346  1.9431  1.6943  1.1789  0.8637  0.8637  0.6227  0.7056

 Free energy of the ion-electron system (eV)
  ---------------------------------------------------
  alpha Z        PSCENC =         0.07142745
  Ewald energy   TEWEN  =       268.22411623
  -Hartree energ DENC   =      -424.83082321
  -exchange      EXHF   =         0.00000000
  -V(xc)+E(xc)   XCENC  =        25.64537554
  PAW double counting   =       461.82994101     -462.62736208
  entropy T*S    EENTRO =        -0.00000000
  eigenvalues    EBANDS =       -88.63134761
  atomic energy  EATOM  =       197.09677683
  ---------------------------------------------------
  free energy    TOTEN  =       -23.22189584 eV

  energy without entropy =      -23.22189584  energy(sigma->0) =      -23.22189584


--------------------------------------------------------------------------------------------------------




----------------------------------------- Iteration    1(  14)  ---------------------------------------


    POTLOK:  cpu time    2.44: real time    2.44
    SETDIJ:  cpu time    0.02: real time    0.02
     EDDAV:  cpu time    1.32: real time    1.32
       DOS:  cpu time    0.00: real time    0.00
    CHARGE:  cpu time    0.37: real time    0.37
    MIXING:  cpu time    0.04: real time    0.05
    --------------------------------------------
      LOOP:  cpu time    4.19: real time    4.21

 eigenvalue-minimisations  :    96
 total energy-change (2. order) :-0.3898842E+00  (-0.3500223E-02)
 number of electron       7.9999999 magnetization       1.4773725
 augmentation part        0.1874854 magnetization       1.4769410

 Broyden mixing:
  rms(total) = 0.34659E-01    rms(broyden)= 0.34659E-01
  rms(prec ) = 0.34822E-01
  weight for this iteration     100.00

 eigenvalues of (default mixing * dielectric matrix)
  average eigenvalue GAMMA=   2.0069
  8.3488  2.6339  2.0407  1.2223  0.8560  0.8560  0.6185  0.7628  0.7234

 Free energy of the ion-electron system (eV)
  ---------------------------------------------------
  alpha Z        PSCENC =         0.07142745
  Ewald energy   TEWEN  =       268.22411623
  -Hartree energ DENC   =      -424.16696070
  -exchange      EXHF   =         0.00000000
  -V(xc)+E(xc)   XCENC  =        25.22100676
  PAW double counting   =       459.17885136     -459.97503058
  entropy T*S    EENTRO =        -0.00000000
  eigenvalues    EBANDS =       -89.26196735
  atomic energy  EATOM  =       197.09677683
  ---------------------------------------------------
  free energy    TOTEN  =       -23.61178001 eV

  energy without entropy =      -23.61178001  energy(sigma->0) =      -23.61178001


--------------------------------------------------------------------------------------------------------




----------------------------------------- Iteration    1(  15)  ---------------------------------------


    POTLOK:  cpu time    2.43: real time    2.44
    SETDIJ:  cpu time    0.02: real time    0.02
     EDDAV:  cpu time    1.66: real time    1.66
       DOS:  cpu time    0.00: real time    0.00
    CHARGE:  cpu time    0.37: real time    0.37
    MIXING:  cpu time    0.05: real time    0.05
    --------------------------------------------
      LOOP:  cpu time    4.53: real time    4.55

 eigenvalue-minimisations  :   128
 total energy-change (2. order) :-0.1687115E+00  (-0.8803188E-03)
 number of electron       7.9999999 magnetization       1.0899355
 augmentation part        0.1874483 magnetization       1.0898459

 Broyden mixing:
  rms(total) = 0.28241E-01    rms(broyden)= 0.28241E-01
  rms(prec ) = 0.28351E-01
  weight for this iteration     100.00

 eigenvalues of (default mixing * dielectric matrix)
  average eigenvalue GAMMA=   2.1624
  9.7512  3.4486  2.0448  1.4680  1.1638  0.8520  0.8520  0.7463  0.6205  0.6763

 Free energy of the ion-electron system (eV)
  ---------------------------------------------------
  alpha Z        PSCENC =         0.07142745
  Ewald energy   TEWEN  =       268.22411623
  -Hartree energ DENC   =      -423.67056911
  -exchange      EXHF   =         0.00000000
  -V(xc)+E(xc)   XCENC  =        25.02607299
  PAW double counting   =       461.38000255     -462.17590014
  entropy T*S    EENTRO =        -0.00000000
  eigenvalues    EBANDS =       -89.73241834
  atomic energy  EATOM  =       197.09677683
  ---------------------------------------------------
  free energy    TOTEN  =       -23.78049155 eV

  energy without entropy =      -23.78049155  energy(sigma->0) =      -23.78049155


--------------------------------------------------------------------------------------------------------




----------------------------------------- Iteration    1(  16)  ---------------------------------------


    POTLOK:  cpu time    2.44: real time    2.44
    SETDIJ:  cpu time    0.02: real time    0.02
     EDDAV:  cpu time    1.32: real time    1.32
       DOS:  cpu time    0.00: real time    0.00
    CHARGE:  cpu time    0.37: real time    0.37
    MIXING:  cpu time    0.05: real time    0.05
    --------------------------------------------
      LOOP:  cpu time    4.20: real time    4.21

 eigenvalue-minimisations  :    96
 total energy-change (2. order) :-0.1424060E+00  (-0.2899584E-03)
 number of electron       7.9999999 magnetization       0.6484374
 augmentation part        0.1875417 magnetization       0.6483494

 Broyden mixing:
  rms(total) = 0.21847E-01    rms(broyden)= 0.21847E-01
  rms(prec ) = 0.21927E-01
  weight for this iteration     100.00

 eigenvalues of (default mixing * dielectric matrix)
  average eigenvalue GAMMA=   2.3183
 11.0037  4.1971  2.3165  1.9323  1.2898  1.0130  0.8642  0.8642  0.7461  0.6215
  0.6534

 Free energy of the ion-electron system (eV)
  ---------------------------------------------------
  alpha Z        PSCENC =         0.07142745
  Ewald energy   TEWEN  =       268.22411623
  -Hartree energ DENC   =      -423.23519795
  -exchange      EXHF   =         0.00000000
  -V(xc)+E(xc)   XCENC  =        24.86577790
  PAW double counting   =       465.16681843     -465.96266536
  entropy T*S    EENTRO =        -0.00000000
  eigenvalues    EBANDS =       -90.14995108
  atomic energy  EATOM  =       197.09677683
  ---------------------------------------------------
  free energy    TOTEN  =       -23.92289755 eV

  energy without entropy =      -23.92289755  energy(sigma->0) =      -23.92289755


--------------------------------------------------------------------------------------------------------




----------------------------------------- Iteration    1(  17)  ---------------------------------------


    POTLOK:  cpu time    2.43: real time    2.44
    SETDIJ:  cpu time    0.02: real time    0.02
     EDDAV:  cpu time    1.66: real time    1.66
       DOS:  cpu time    0.00: real time    0.00
    CHARGE:  cpu time    0.37: real time    0.37
    MIXING:  cpu time    0.05: real time    0.05
    --------------------------------------------
      LOOP:  cpu time    4.54: real time    4.55

 eigenvalue-minimisations  :   128
 total energy-change (2. order) :-0.7107040E-01  (-0.9352925E-04)
 number of electron       7.9999999 magnetization       0.3902580
 augmentation part        0.1874766 magnetization       0.3900978

 Broyden mixing:
  rms(total) = 0.14488E-01    rms(broyden)= 0.14488E-01
  rms(prec ) = 0.14572E-01
  weight for this iteration     100.00

 eigenvalues of (default mixing * dielectric matrix)
  average eigenvalue GAMMA=   2.5761
 13.2402  5.7346  2.7721  2.0493  1.4122  1.1612  0.8542  0.8542  0.8254  0.7483
  0.6227  0.6389

 Free energy of the ion-electron system (eV)
  ---------------------------------------------------
  alpha Z        PSCENC =         0.07142745
  Ewald energy   TEWEN  =       268.22411623
  -Hartree energ DENC   =      -423.01554960
  -exchange      EXHF   =         0.00000000
  -V(xc)+E(xc)   XCENC  =        24.79108535
  PAW double counting   =       465.77096928     -466.56808123
  entropy T*S    EENTRO =        -0.00000000
  eigenvalues    EBANDS =       -90.36471225
  atomic energy  EATOM  =       197.09677683
  ---------------------------------------------------
  free energy    TOTEN  =       -23.99396795 eV

  energy without entropy =      -23.99396795  energy(sigma->0) =      -23.99396795


--------------------------------------------------------------------------------------------------------




----------------------------------------- Iteration    1(  18)  ---------------------------------------


    POTLOK:  cpu time    2.43: real time    2.44
    SETDIJ:  cpu time    0.02: real time    0.02
     EDDAV:  cpu time    1.31: real time    1.32
       DOS:  cpu time    0.00: real time    0.00
    CHARGE:  cpu time    0.37: real time    0.37
    MIXING:  cpu time    0.06: real time    0.05
    --------------------------------------------
      LOOP:  cpu time    4.20: real time    4.21

 eigenvalue-minimisations  :    96
 total energy-change (2. order) :-0.3115930E-01  (-0.3521571E-04)
 number of electron       7.9999999 magnetization       0.2335666
 augmentation part        0.1874605 magnetization       0.2334624

 Broyden mixing:
  rms(total) = 0.10730E-01    rms(broyden)= 0.10730E-01
  rms(prec ) = 0.10833E-01
  weight for this iteration     100.00

 eigenvalues of (default mixing * dielectric matrix)
  average eigenvalue GAMMA=   2.7817
 15.7530  6.8538  2.8823  2.1630  1.6591  1.3064  1.0620  0.8830  0.8830  0.7293
  0.7293  0.6256  0.6325

 Free energy of the ion-electron system (eV)
  ---------------------------------------------------
  alpha Z        PSCENC =         0.07142745
  Ewald energy   TEWEN  =       268.22411623
  -Hartree energ DENC   =      -422.92239891
  -exchange      EXHF   =         0.00000000
  -V(xc)+E(xc)   XCENC  =        24.75907818
  PAW double counting   =       464.25005921     -465.04737163
  entropy T*S    EENTRO =        -0.00000000
  eigenvalues    EBANDS =       -90.45681460
  atomic energy  EATOM  =       197.09677683
  ---------------------------------------------------
  free energy    TOTEN  =       -24.02512725 eV

  energy without entropy =      -24.02512725  energy(sigma->0) =      -24.02512725


--------------------------------------------------------------------------------------------------------




----------------------------------------- Iteration    1(  19)  ---------------------------------------


    POTLOK:  cpu time    2.44: real time    2.45
    SETDIJ:  cpu time    0.02: real time    0.02
     EDDAV:  cpu time    1.14: real time    1.15
       DOS:  cpu time    0.00: real time    0.00
    CHARGE:  cpu time    0.37: real time    0.37
    MIXING:  cpu time    0.06: real time    0.06
    --------------------------------------------
      LOOP:  cpu time    4.03: real time    4.05

 eigenvalue-minimisations  :    80
 total energy-change (2. order) : 0.3194776E-02  (-0.7628750E-04)
 number of electron       7.9999999 magnetization       0.1041649
 augmentation part        0.1875120 magnetization       0.1041341

 Broyden mixing:
  rms(total) = 0.74410E-02    rms(broyden)= 0.74410E-02
  rms(prec ) = 0.75186E-02
  weight for this iteration     100.00

 eigenvalues of (default mixing * dielectric matrix)
  average eigenvalue GAMMA=   2.9191
 17.6068  7.4727  3.4613  2.3813  1.9267  1.4765  1.1288  0.9767  0.8705  0.8705
  0.7351  0.7094  0.6259  0.6259

 Free energy of the ion-electron system (eV)
  ---------------------------------------------------
  alpha Z        PSCENC =         0.07142745
  Ewald energy   TEWEN  =       268.22411623
  -Hartree energ DENC   =      -422.93422843
  -exchange      EXHF   =         0.00000000
  -V(xc)+E(xc)   XCENC  =        24.76476215
  PAW double counting   =       463.33459447     -464.13115254
  entropy T*S    EENTRO =        -0.00000000
  eigenvalues    EBANDS =       -90.44822862
  atomic energy  EATOM  =       197.09677683
  ---------------------------------------------------
  free energy    TOTEN  =       -24.02193247 eV

  energy without entropy =      -24.02193247  energy(sigma->0) =      -24.02193247


--------------------------------------------------------------------------------------------------------




----------------------------------------- Iteration    1(  20)  ---------------------------------------


    POTLOK:  cpu time    2.46: real time    2.47
    SETDIJ:  cpu time    0.02: real time    0.02
     EDDAV:  cpu time    0.97: real time    0.98
       DOS:  cpu time    0.00: real time    0.00
    CHARGE:  cpu time    0.38: real time    0.37
    MIXING:  cpu time    0.06: real time    0.06
    --------------------------------------------
      LOOP:  cpu time    3.89: real time    3.91

 eigenvalue-minimisations  :    64
 total energy-change (2. order) :-0.1225167E-02  (-0.1244625E-03)
 number of electron       7.9999999 magnetization       0.0342852
 augmentation part        0.1875608 magnetization       0.0343167

 Broyden mixing:
  rms(total) = 0.50679E-02    rms(broyden)= 0.50679E-02
  rms(prec ) = 0.51352E-02
  weight for this iteration     100.00

 eigenvalues of (default mixing * dielectric matrix)
  average eigenvalue GAMMA=   3.0748
 19.4669  8.1859  4.5012  2.6307  2.1070  1.5845  1.3143  1.0652  0.8692  0.8692
  0.8060  0.7856  0.6913  0.6187  0.6259

 Free energy of the ion-electron system (eV)
  ---------------------------------------------------
  alpha Z        PSCENC =         0.07142745
  Ewald energy   TEWEN  =       268.22411623
  -Hartree energ DENC   =      -423.08083039
  -exchange      EXHF   =         0.00000000
  -V(xc)+E(xc)   XCENC  =        24.77066232
  PAW double counting   =       462.36852979     -463.16443517
  entropy T*S    EENTRO =        -0.00000000
  eigenvalues    EBANDS =       -90.30940469
  atomic energy  EATOM  =       197.09677683
  ---------------------------------------------------
  free energy    TOTEN  =       -24.02315764 eV

  energy without entropy =      -24.02315764  energy(sigma->0) =      -24.02315764


--------------------------------------------------------------------------------------------------------




----------------------------------------- Iteration    1(  21)  ---------------------------------------


    POTLOK:  cpu time    2.43: real time    2.44
    SETDIJ:  cpu time    0.02: real time    0.02
     EDDAV:  cpu time    0.97: real time    0.97
       DOS:  cpu time    0.00: real time    0.00
    CHARGE:  cpu time    0.37: real time    0.37
    MIXING:  cpu time    0.06: real time    0.07
    --------------------------------------------
      LOOP:  cpu time    3.86: real time    3.88

 eigenvalue-minimisations  :    64
 total energy-change (2. order) :-0.4976773E-02  (-0.5211830E-04)
 number of electron       7.9999999 magnetization       0.0108382
 augmentation part        0.1875152 magnetization       0.0108604

 Broyden mixing:
  rms(total) = 0.21941E-02    rms(broyden)= 0.21941E-02
  rms(prec ) = 0.22727E-02
  weight for this iteration     100.00

 eigenvalues of (default mixing * dielectric matrix)
  average eigenvalue GAMMA=   3.2000
 21.3046  9.0204  5.4041  2.9073  2.2076  1.6951  1.4585  1.0772  0.9726  0.8657
  0.8657  0.7523  0.7379  0.6874  0.6184  0.6246

 Free energy of the ion-electron system (eV)
  ---------------------------------------------------
  alpha Z        PSCENC =         0.07142745
  Ewald energy   TEWEN  =       268.22411623
  -Hartree energ DENC   =      -423.21653059
  -exchange      EXHF   =         0.00000000
  -V(xc)+E(xc)   XCENC  =        24.77185797
  PAW double counting   =       463.01113723     -463.80738795
  entropy T*S    EENTRO =        -0.00000000
  eigenvalues    EBANDS =       -90.17953158
  atomic energy  EATOM  =       197.09677683
  ---------------------------------------------------
  free energy    TOTEN  =       -24.02813441 eV

  energy without entropy =      -24.02813441  energy(sigma->0) =      -24.02813441


--------------------------------------------------------------------------------------------------------




----------------------------------------- Iteration    1(  22)  ---------------------------------------


    POTLOK:  cpu time    2.44: real time    2.45
    SETDIJ:  cpu time    0.02: real time    0.02
     EDDAV:  cpu time    1.31: real time    1.31
       DOS:  cpu time    0.00: real time    0.00
    CHARGE:  cpu time    0.37: real time    0.37
    MIXING:  cpu time    0.06: real time    0.12
    --------------------------------------------
      LOOP:  cpu time    4.20: real time    4.28

 eigenvalue-minimisations  :    96
 total energy-change (2. order) :-0.5391045E-02  (-0.3319653E-04)
 number of electron       7.9999999 magnetization       0.0034086
 augmentation part        0.1874614 magnetization       0.0034072

 Broyden mixing:
  rms(total) = 0.13520E-02    rms(broyden)= 0.13520E-02
  rms(prec ) = 0.14427E-02
  weight for this iteration     100.00

 eigenvalues of (default mixing * dielectric matrix)
  average eigenvalue GAMMA=   3.2152
 22.2365  9.5215  5.8085  3.0900  2.2592  1.8838  1.5421  1.2720  1.0719  0.8646
  0.8646  0.8164  0.8164  0.6226  0.6226  0.6885  0.6768

 Free energy of the ion-electron system (eV)
  ---------------------------------------------------
  alpha Z        PSCENC =         0.07142745
  Ewald energy   TEWEN  =       268.22411623
  -Hartree energ DENC   =      -423.24326293
  -exchange      EXHF   =         0.00000000
  -V(xc)+E(xc)   XCENC  =        24.76819783
  PAW double counting   =       463.44663173     -464.24317632
  entropy T*S    EENTRO =        -0.00000000
  eigenvalues    EBANDS =       -90.15423627
  atomic energy  EATOM  =       197.09677683
  ---------------------------------------------------
  free energy    TOTEN  =       -24.03352546 eV

  energy without entropy =      -24.03352546  energy(sigma->0) =      -24.03352546


--------------------------------------------------------------------------------------------------------




----------------------------------------- Iteration    1(  23)  ---------------------------------------


    POTLOK:  cpu time    2.44: real time    2.45
    SETDIJ:  cpu time    0.02: real time    0.02
     EDDAV:  cpu time    0.97: real time    0.97
       DOS:  cpu time    0.00: real time    0.00
    CHARGE:  cpu time    0.37: real time    0.37
    MIXING:  cpu time    0.08: real time    0.07
    --------------------------------------------
      LOOP:  cpu time    3.88: real time    3.89

 eigenvalue-minimisations  :    64
 total energy-change (2. order) :-0.2551403E-02  (-0.1317688E-04)
 number of electron       7.9999999 magnetization       0.0011504
 augmentation part        0.1874560 magnetization       0.0011353

 Broyden mixing:
  rms(total) = 0.81434E-03    rms(broyden)= 0.81433E-03
  rms(prec ) = 0.86943E-03
  weight for this iteration     100.00

 eigenvalues of (default mixing * dielectric matrix)
  average eigenvalue GAMMA=   3.1647
 22.5445  9.7393  5.9488  3.2298  2.3878  2.1559  1.5881  1.4310  1.0624  0.9066
  0.9066  0.8515  0.8515  0.7422  0.7167  0.6188  0.6247  0.6591

 Free energy of the ion-electron system (eV)
  ---------------------------------------------------
  alpha Z        PSCENC =         0.07142745
  Ewald energy   TEWEN  =       268.22411623
  -Hartree energ DENC   =      -423.20391380
  -exchange      EXHF   =         0.00000000
  -V(xc)+E(xc)   XCENC  =        24.76354964
  PAW double counting   =       463.44825860     -464.24477310
  entropy T*S    EENTRO =        -0.00000000
  eigenvalues    EBANDS =       -90.19151871
  atomic energy  EATOM  =       197.09677683
  ---------------------------------------------------
  free energy    TOTEN  =       -24.03607686 eV

  energy without entropy =      -24.03607686  energy(sigma->0) =      -24.03607686


--------------------------------------------------------------------------------------------------------




----------------------------------------- Iteration    1(  24)  ---------------------------------------


    POTLOK:  cpu time    2.44: real time    2.44
    SETDIJ:  cpu time    0.02: real time    0.02
     EDDAV:  cpu time    1.31: real time    1.31
       DOS:  cpu time    0.00: real time    0.00
    CHARGE:  cpu time    0.37: real time    0.37
    MIXING:  cpu time    0.08: real time    0.08
    --------------------------------------------
      LOOP:  cpu time    4.22: real time    4.23

 eigenvalue-minimisations  :    96
 total energy-change (2. order) :-0.1865285E-02  (-0.9451211E-05)
 number of electron       7.9999999 magnetization       0.0003097
 augmentation part        0.1874786 magnetization       0.0002977

 Broyden mixing:
  rms(total) = 0.33317E-03    rms(broyden)= 0.33312E-03
  rms(prec ) = 0.36162E-03
  weight for this iteration     100.00

 eigenvalues of (default mixing * dielectric matrix)
  average eigenvalue GAMMA=   3.1181
 22.7150  9.8949  6.0333  3.6220  2.6525  2.2210  1.6352  1.4538  1.2000  1.1320
  0.8634  0.8634  0.8303  0.8303  0.7060  0.7060  0.6191  0.6270  0.6386

 Free energy of the ion-electron system (eV)
  ---------------------------------------------------
  alpha Z        PSCENC =         0.07142745
  Ewald energy   TEWEN  =       268.22411623
  -Hartree energ DENC   =      -423.16796614
  -exchange      EXHF   =         0.00000000
  -V(xc)+E(xc)   XCENC  =        24.75987631
  PAW double counting   =       463.32181692     -464.11819275
  entropy T*S    EENTRO =        -0.00000000
  eigenvalues    EBANDS =       -90.22579700
  atomic energy  EATOM  =       197.09677683
  ---------------------------------------------------
  free energy    TOTEN  =       -24.03794215 eV

  energy without entropy =      -24.03794215  energy(sigma->0) =      -24.03794215


--------------------------------------------------------------------------------------------------------




----------------------------------------- Iteration    1(  25)  ---------------------------------------


    POTLOK:  cpu time    2.43: real time    2.43
    SETDIJ:  cpu time    0.02: real time    0.02
     EDDAV:  cpu time    0.97: real time    0.97
       DOS:  cpu time    0.00: real time    0.00
    CHARGE:  cpu time    0.37: real time    0.37
    MIXING:  cpu time    0.08: real time    0.08
    --------------------------------------------
      LOOP:  cpu time    3.88: real time    3.89

 eigenvalue-minimisations  :    64
 total energy-change (2. order) :-0.8012696E-03  (-0.1884222E-05)
 number of electron       7.9999999 magnetization       0.0001329
 augmentation part        0.1874816 magnetization       0.0001288

 Broyden mixing:
  rms(total) = 0.25746E-03    rms(broyden)= 0.25745E-03
  rms(prec ) = 0.27249E-03
  weight for this iteration     100.00

 eigenvalues of (default mixing * dielectric matrix)
  average eigenvalue GAMMA=   3.0366
 22.7544  9.9425  6.0714  3.8061  2.7265  2.2036  1.6885  1.5224  1.3725  1.0529
  0.9244  0.9244  0.8491  0.8491  0.7441  0.7441  0.6808  0.6227  0.6227  0.6299

 Free energy of the ion-electron system (eV)
  ---------------------------------------------------
  alpha Z        PSCENC =         0.07142745
  Ewald energy   TEWEN  =       268.22411623
  -Hartree energ DENC   =      -423.15560946
  -exchange      EXHF   =         0.00000000
  -V(xc)+E(xc)   XCENC  =        24.75839338
  PAW double counting   =       463.28069612     -464.07706230
  entropy T*S    EENTRO =        -0.00000000
  eigenvalues    EBANDS =       -90.23748166
  atomic energy  EATOM  =       197.09677683
  ---------------------------------------------------
  free energy    TOTEN  =       -24.03874342 eV

  energy without entropy =      -24.03874342  energy(sigma->0) =      -24.03874342


--------------------------------------------------------------------------------------------------------




----------------------------------------- Iteration    1(  26)  ---------------------------------------


    POTLOK:  cpu time    2.42: real time    2.43
    SETDIJ:  cpu time    0.02: real time    0.02
     EDDAV:  cpu time    1.48: real time    1.49
       DOS:  cpu time    0.00: real time    0.00
    CHARGE:  cpu time    0.37: real time    0.37
    MIXING:  cpu time    0.09: real time    0.09
    --------------------------------------------
      LOOP:  cpu time    4.39: real time    4.40

 eigenvalue-minimisations  :   112
 total energy-change (2. order) :-0.2103424E-03  (-0.3714918E-06)
 number of electron       7.9999999 magnetization       0.0000395
 augmentation part        0.1874797 magnetization       0.0000386

 Broyden mixing:
  rms(total) = 0.13600E-03    rms(broyden)= 0.13599E-03
  rms(prec ) = 0.14748E-03
  weight for this iteration     100.00

 eigenvalues of (default mixing * dielectric matrix)
  average eigenvalue GAMMA=   2.9938
 22.7754  9.9774  6.1148  4.0792  2.8072  2.2974  2.0622  1.6097  1.4413  1.1242
  1.1242  0.9233  0.8617  0.8617  0.8142  0.7563  0.7036  0.6732  0.6266  0.6180
  0.6180

 Free energy of the ion-electron system (eV)
  ---------------------------------------------------
  alpha Z        PSCENC =         0.07142745
  Ewald energy   TEWEN  =       268.22411623
  -Hartree energ DENC   =      -423.15384190
  -exchange      EXHF   =         0.00000000
  -V(xc)+E(xc)   XCENC  =        24.75807030
  PAW double counting   =       463.28785867     -464.08425256
  entropy T*S    EENTRO =        -0.00000000
  eigenvalues    EBANDS =       -90.23910877
  atomic energy  EATOM  =       197.09677683
  ---------------------------------------------------
  free energy    TOTEN  =       -24.03895376 eV

  energy without entropy =      -24.03895376  energy(sigma->0) =      -24.03895376


--------------------------------------------------------------------------------------------------------




----------------------------------------- Iteration    1(  27)  ---------------------------------------


    POTLOK:  cpu time    2.42: real time    2.43
    SETDIJ:  cpu time    0.02: real time    0.02
     EDDAV:  cpu time    0.97: real time    0.97
       DOS:  cpu time    0.00: real time    0.00
    CHARGE:  cpu time    0.37: real time    0.37
    MIXING:  cpu time    0.10: real time    0.09
    --------------------------------------------
      LOOP:  cpu time    3.88: real time    3.89

 eigenvalue-minimisations  :    64
 total energy-change (2. order) :-0.1232879E-03  (-0.3212873E-06)
 number of electron       7.9999999 magnetization       0.0000176
 augmentation part        0.1874768 magnetization       0.0000180

 Broyden mixing:
  rms(total) = 0.65856E-04    rms(broyden)= 0.65851E-04
  rms(prec ) = 0.72895E-04
  weight for this iteration     100.00

 eigenvalues of (default mixing * dielectric matrix)
  average eigenvalue GAMMA=   2.9268
 22.7794  9.9866  6.1268  4.2033  2.8753  2.4619  2.1429  1.6320  1.4281  1.3015
  1.0108  0.9825  0.9825  0.8524  0.8524  0.7869  0.7439  0.6853  0.6853  0.6214
  0.6214  0.6269

 Free energy of the ion-electron system (eV)
  ---------------------------------------------------
  alpha Z        PSCENC =         0.07142745
  Ewald energy   TEWEN  =       268.22411623
  -Hartree energ DENC   =      -423.15200019
  -exchange      EXHF   =         0.00000000
  -V(xc)+E(xc)   XCENC  =        24.75778259
  PAW double counting   =       463.27340636     -464.06982969
  entropy T*S    EENTRO =        -0.00000000
  eigenvalues    EBANDS =       -90.24075663
  atomic energy  EATOM  =       197.09677683
  ---------------------------------------------------
  free energy    TOTEN  =       -24.03907705 eV

  energy without entropy =      -24.03907705  energy(sigma->0) =      -24.03907705


--------------------------------------------------------------------------------------------------------




----------------------------------------- Iteration    1(  28)  ---------------------------------------


    POTLOK:  cpu time    2.43: real time    2.43
    SETDIJ:  cpu time    0.02: real time    0.02
     EDDAV:  cpu time    1.48: real time    1.48
       DOS:  cpu time    0.00: real time    0.00
    CHARGE:  cpu time    0.38: real time    0.38
    MIXING:  cpu time    0.11: real time    0.11
    --------------------------------------------
      LOOP:  cpu time    4.41: real time    4.43

 eigenvalue-minimisations  :   112
 total energy-change (2. order) :-0.4646086E-04  (-0.7284330E-07)
 number of electron       7.9999999 magnetization       0.0000093
 augmentation part        0.1874762 magnetization       0.0000093

 Broyden mixing:
  rms(total) = 0.40500E-04    rms(broyden)= 0.40498E-04
  rms(prec ) = 0.45254E-04
  weight for this iteration     100.00

 eigenvalues of (default mixing * dielectric matrix)
  average eigenvalue GAMMA=   2.8810
 22.7808  9.9934  6.1324  4.3203  3.0950  2.4123  2.3822  1.6512  1.5637  1.5637
  1.1599  1.0661  0.9364  0.8564  0.8564  0.8214  0.7572  0.7141  0.6597  0.6597
  0.6222  0.6222  0.6365

 Free energy of the ion-electron system (eV)
  ---------------------------------------------------
  alpha Z        PSCENC =         0.07142745
  Ewald energy   TEWEN  =       268.22411623
  -Hartree energ DENC   =      -423.15160902
  -exchange      EXHF   =         0.00000000
  -V(xc)+E(xc)   XCENC  =        24.75771854
  PAW double counting   =       463.28133552     -464.07775740
  entropy T*S    EENTRO =        -0.00000000
  eigenvalues    EBANDS =       -90.24113165
  atomic energy  EATOM  =       197.09677683
  ---------------------------------------------------
  free energy    TOTEN  =       -24.03912351 eV

  energy without entropy =      -24.03912351  energy(sigma->0) =      -24.03912351


--------------------------------------------------------------------------------------------------------




----------------------------------------- Iteration    1(  29)  ---------------------------------------


    POTLOK:  cpu time    2.44: real time    2.44
    SETDIJ:  cpu time    0.02: real time    0.02
     EDDAV:  cpu time    1.32: real time    1.32
       DOS:  cpu time    0.00: real time    0.00
    CHARGE:  cpu time    0.37: real time    0.37
    MIXING:  cpu time    0.10: real time    0.10
    --------------------------------------------
      LOOP:  cpu time    4.25: real time    4.26

 eigenvalue-minimisations  :    96
 total energy-change (2. order) :-0.1368977E-04  (-0.2806820E-07)
 number of electron       7.9999999 magnetization       0.0000035
 augmentation part        0.1874766 magnetization       0.0000034

 Broyden mixing:
  rms(total) = 0.23489E-04    rms(broyden)= 0.23489E-04
  rms(prec ) = 0.26507E-04
  weight for this iteration     100.00

 eigenvalues of (default mixing * dielectric matrix)
  average eigenvalue GAMMA=   2.8421
 22.7821  9.9956  6.1421  4.6364  3.3902  2.6843  2.2864  1.8378  1.6118  1.4272
  1.1924  1.0352  1.0352  0.9616  0.8501  0.8501  0.8482  0.7390  0.7171  0.6857
  0.6432  0.6254  0.6165  0.6165

 Free energy of the ion-electron system (eV)
  ---------------------------------------------------
  alpha Z        PSCENC =         0.07142745
  Ewald energy   TEWEN  =       268.22411623
  -Hartree energ DENC   =      -423.15158089
  -exchange      EXHF   =         0.00000000
  -V(xc)+E(xc)   XCENC  =        24.75772245
  PAW double counting   =       463.29717532     -464.09359046
  entropy T*S    EENTRO =        -0.00000000
  eigenvalues    EBANDS =       -90.24118412
  atomic energy  EATOM  =       197.09677683
  ---------------------------------------------------
  free energy    TOTEN  =       -24.03913720 eV

  energy without entropy =      -24.03913720  energy(sigma->0) =      -24.03913720


--------------------------------------------------------------------------------------------------------




----------------------------------------- Iteration    1(  30)  ---------------------------------------


    POTLOK:  cpu time    2.44: real time    2.44
    SETDIJ:  cpu time    0.02: real time    0.02
     EDDAV:  cpu time    1.32: real time    1.32
       DOS:  cpu time    0.00: real time    0.00
    CHARGE:  cpu time    0.37: real time    0.37
    MIXING:  cpu time    0.11: real time    0.11
    --------------------------------------------
      LOOP:  cpu time    4.25: real time    4.26

 eigenvalue-minimisations  :    96
 total energy-change (2. order) :-0.7131641E-05  (-0.1040733E-07)
 number of electron       7.9999999 magnetization       0.0000018
 augmentation part        0.1874765 magnetization       0.0000017

 Broyden mixing:
  rms(total) = 0.12802E-04    rms(broyden)= 0.12802E-04
  rms(prec ) = 0.14774E-04
  weight for this iteration     100.00

 eigenvalues of (default mixing * dielectric matrix)
  average eigenvalue GAMMA=   2.7962
 22.7823  9.9962  6.1504  4.7696  3.4774  2.6335  2.1734  2.1734  1.6064  1.4463
  1.4463  1.1741  1.0192  1.0192  0.8679  0.8679  0.8243  0.8243  0.7301  0.7301
  0.6903  0.6463  0.6250  0.6160  0.6160

 Free energy of the ion-electron system (eV)
  ---------------------------------------------------
  alpha Z        PSCENC =         0.07142745
  Ewald energy   TEWEN  =       268.22411623
  -Hartree energ DENC   =      -423.15155095
  -exchange      EXHF   =         0.00000000
  -V(xc)+E(xc)   XCENC  =        24.75769745
  PAW double counting   =       463.29566238     -464.09207995
  entropy T*S    EENTRO =        -0.00000000
  eigenvalues    EBANDS =       -90.24119377
  atomic energy  EATOM  =       197.09677683
  ---------------------------------------------------
  free energy    TOTEN  =       -24.03914433 eV

  energy without entropy =      -24.03914433  energy(sigma->0) =      -24.03914433


--------------------------------------------------------------------------------------------------------




----------------------------------------- Iteration    1(  31)  ---------------------------------------


    POTLOK:  cpu time    2.43: real time    2.44
    SETDIJ:  cpu time    0.02: real time    0.02
     EDDAV:  cpu time    1.31: real time    1.32
       DOS:  cpu time    0.00: real time    0.00
    CHARGE:  cpu time    0.37: real time    0.37
    MIXING:  cpu time    0.09: real time    0.12
    --------------------------------------------
      LOOP:  cpu time    4.22: real time    4.27

 eigenvalue-minimisations  :    96
 total energy-change (2. order) :-0.5606649E-05  (-0.3209239E-08)
 number of electron       7.9999999 magnetization       0.0000009
 augmentation part        0.1874764 magnetization       0.0000010

 Broyden mixing:
  rms(total) = 0.88133E-05    rms(broyden)= 0.88132E-05
  rms(prec ) = 0.99295E-05
  weight for this iteration     100.00

 eigenvalues of (default mixing * dielectric matrix)
  average eigenvalue GAMMA=   2.7865
 22.7824  9.9974  6.1621  5.0461  3.8132  2.8774  2.5060  2.2997  1.6930  1.5760
  1.4994  1.1852  1.0724  0.9913  0.9913  0.8622  0.8622  0.7951  0.7951  0.7397
  0.7076  0.6915  0.6449  0.6251  0.6168  0.6168

 Free energy of the ion-electron system (eV)
  ---------------------------------------------------
  alpha Z        PSCENC =         0.07142745
  Ewald energy   TEWEN  =       268.22411623
  -Hartree energ DENC   =      -423.15162400
  -exchange      EXHF   =         0.00000000
  -V(xc)+E(xc)   XCENC  =        24.75768280
  PAW double counting   =       463.29052663     -464.08694385
  entropy T*S    EENTRO =        -0.00000000
  eigenvalues    EBANDS =       -90.24111201
  atomic energy  EATOM  =       197.09677683
  ---------------------------------------------------
  free energy    TOTEN  =       -24.03914993 eV

  energy without entropy =      -24.03914993  energy(sigma->0) =      -24.03914993


--------------------------------------------------------------------------------------------------------




----------------------------------------- Iteration    1(  32)  ---------------------------------------


    POTLOK:  cpu time    2.43: real time    2.44
    SETDIJ:  cpu time    0.02: real time    0.02
     EDDAV:  cpu time    1.48: real time    1.48
       DOS:  cpu time    0.00: real time    0.00
    CHARGE:  cpu time    0.37: real time    0.37
[...]
    FORCOR:  cpu time    2.23: real time    2.24
    FORHAR:  cpu time    0.26: real time    0.26
    MIXING:  cpu time    0.05: real time    0.05
    OFIELD:  cpu time    0.00: real time    0.00

  FORCE on cell =-STRESS in cart. coord.  units (eV):
  Direction    XX          YY          ZZ          XY          YZ          ZX
  --------------------------------------------------------------------------------------
  Alpha Z     0.07143     0.07143     0.07143
  Ewald     189.78175   189.82706  -111.38467     0.01463    -0.30059    -1.06126
  Hartree   240.64988   240.67164   -58.17284     0.00796    -0.02408    -0.08508
  E(xc)     -27.23020   -27.22996   -27.22999     0.00000    -0.00051    -0.00179
  Local    -488.85658  -488.92259   111.14255    -0.02061     0.22889     0.80823
  n-local   -15.85387   -15.85320   -15.85310     0.00004     0.00558     0.01970
  augment     0.12478     0.12476     0.12467     0.00001     0.00089     0.00312
  Kinetic   101.25952   101.24749   101.24810    -0.00042     0.03043     0.10749
  Fock        0.00000     0.00000     0.00000     0.00000     0.00000     0.00000
  -------------------------------------------------------------------------------------
  Total      -0.05329    -0.06338    -0.05385     0.00162    -0.05938    -0.20959
  in kB      -0.02517    -0.02994    -0.02544     0.00077    -0.02805    -0.09901
  external pressure =       -0.03 kB  Pullay stress =        0.00 kB


 VOLUME and BASIS-vectors are now :
 -----------------------------------------------------------------------------
  energy-cutoff  :      520.00
  volume of cell :     3391.56
      direct lattice vectors                 reciprocal lattice vectors
    10.231375098  0.000000000  0.000000000     0.097738573  0.056429391  0.000000000
    -5.115687549  8.860630751  0.000000000     0.000000000  0.112858783  0.000000000
     0.000000000  0.000000000 37.411182405     0.000000000  0.000000000  0.026729976

  length of vectors
    10.231375098 10.231375098 37.411182405     0.112858783  0.112858783  0.026729976


 FORCES acting on ions
    electron-ion (+dipol)            ewald-force                    non-local-force                 convergence-correction
 -----------------------------------------------------------------------------------------------
   0.411E+02 -.332E+02 -.479E+00   -.454E+02 0.366E+02 0.507E+00   0.430E+01 -.347E+01 -.672E-01   -.168E-05 -.341E-06 -.136E-04
   0.176E+02 0.498E+02 -.479E+00   -.194E+02 -.550E+02 0.507E+00   0.184E+01 0.521E+01 -.672E-01   -.287E-06 -.142E-05 -.137E-04
   -.296E+02 -.839E+01 0.445E+02   0.329E+02 0.932E+01 -.493E+02   -.316E+01 -.896E+00 0.460E+01   0.418E-05 -.404E-06 -.185E-04
   -.290E+02 -.822E+01 -.441E+02   0.319E+02 0.904E+01 0.483E+02   -.298E+01 -.845E+00 -.443E+01   -.260E-05 -.196E-05 -.163E-04
   0.280E-01 0.255E-01 0.169E+00   -.369E-01 -.305E-01 -.756E-02   -.338E-02 0.261E-02 0.340E+00   0.371E-06 -.118E-04 -.285E-04
 -----------------------------------------------------------------------------------------------
   0.776E-02 0.155E-02 -.384E+00   -.139E-16 0.944E-15 -.711E-14   -.771E-02 -.158E-02 0.385E+00   -.978E-08 -.159E-04 -.907E-04
 
 
 POSITION                                       TOTAL-FORCE (eV/Angst)
 -----------------------------------------------------------------------------------
      9.37947      0.47078     37.41040        -0.002289      0.000094     -0.039264
      4.75120      7.60923     37.41041        -0.000602     -0.000308     -0.039282
     -4.50823      8.81461     36.51312         0.124770      0.034491     -0.219766
     -4.50477      8.81559      0.89158        -0.109555     -0.031908     -0.203046
      5.11620      8.64261     37.39921        -0.012324     -0.002369      0.501357
 -----------------------------------------------------------------------------------
    total drift:                                0.000049     -0.000051      0.000157


--------------------------------------------------------------------------------------------------------



  FREE ENERGIE OF THE ION-ELECTRON SYSTEM (eV)
  ---------------------------------------------------
  free  energy   TOTEN  =       -24.03664849 eV

  energy  without entropy=      -24.03664849  energy(sigma->0) =      -24.03664849
 
 d Force = 0.5972388E-05[-0.100E-01, 0.100E-01]  d Energy = 0.6420191E-05-0.448E-06
 d Force =-0.1456484E-03[ 0.151E-03,-0.442E-03]  d Ewald  =-0.1438303E-03-0.182E-05


--------------------------------------------------------------------------------------------------------


    POTLOK:  cpu time    2.44: real time    2.45


--------------------------------------------------------------------------------------------------------


 Finite differences progress:
  Degree of freedom:  15/ 15
  Displacement:        2/  2
  Total:              30/ 30


--------------------------------------------------------------------------------------------------------


 INTERNAL STRAIN TENSORS FROM DISPLACED ATOMS
 ============================================

 INTERNAL STRAIN TENSOR FOR ION    1 for displacements in x,y,z  (eV/Angst):
          X           Y           Z          XY          YZ          ZX
  --------------------------------------------------------------------------------
  x    19.70684     8.35407    -0.36687   -13.18957     0.01414    -0.02394
  y   -10.27829   -12.19029    -0.00625    11.97897    -0.01716     0.01471
  z    -0.02817    -0.02291    -0.01211     0.02296    -2.94195     3.32883

 INTERNAL STRAIN TENSOR FOR ION    2 for displacements in x,y,z  (eV/Angst):
          X           Y           Z          XY          YZ          ZX
  --------------------------------------------------------------------------------
  x     3.88808     7.99759    -0.46811     7.02506     0.00520     0.01047
  y     2.55115    31.17500    -0.16720     9.66240    -0.03176    -0.00974
  z     0.03132     0.00252     0.02549    -0.01330     4.25078     1.29157

 INTERNAL STRAIN TENSOR FOR ION    3 for displacements in x,y,z  (eV/Angst):
          X           Y           Z          XY          YZ          ZX
  --------------------------------------------------------------------------------
  x    -9.37349     0.06595   -10.04037    -2.14908     1.90835    10.51303
  y    -1.42797    -1.31270    -2.87034    -2.68187     4.30296     1.89089
  z     6.59328     0.41554    22.00825     1.89727    -3.61498   -12.73349

 INTERNAL STRAIN TENSOR FOR ION    4 for displacements in x,y,z  (eV/Angst):
          X           Y           Z          XY          YZ          ZX
  --------------------------------------------------------------------------------
  x    -9.53394    -0.00551   -10.06353    -2.17076    -1.93756   -10.57066
  y    -1.35146    -1.24264    -2.83063    -2.72341    -4.29695    -1.96204
  z    -6.67199    -0.46775   -21.87965    -1.91425    -3.60674   -12.73647

 INTERNAL STRAIN TENSOR FOR ION    5 for displacements in x,y,z  (eV/Angst):
          X           Y           Z          XY          YZ          ZX
  --------------------------------------------------------------------------------
  x    -4.64741   -16.25014    20.91428    10.52349     0.01151     0.08214
  y    10.51932   -16.43261     5.92221   -16.25437     0.04473     0.01155
  z     0.08256     0.04488    -0.12958     0.01143     5.92480    20.90989


--------------------------------------------------------------------------------------------------------


 
 Eigenvectors and eigenvalues of the dynamical matrix
 ----------------------------------------------------
 
 
   1 f  =   92.888684 THz   583.636816 2PiTHz 3098.432895 cm-1   384.156857 meV
             X         Y         Z           dx          dy          dz
      9.379471  0.470778 37.410405    -0.032199    0.019828    0.021230  
      4.751200  7.609231 37.410405     0.063976    0.180721    0.020883  
     -4.508231  8.814608 36.513124     0.414606    0.113385   -0.594160  
     -4.504772  8.815587  0.891584    -0.331970   -0.097985   -0.461034  
      5.116196  8.642615 37.409211    -0.032811   -0.062556    0.292920  
 
   2 f  =   92.804104 THz   583.105384 2PiTHz 3095.611611 cm-1   383.807062 meV
             X         Y         Z           dx          dy          dz
      9.379471  0.470778 37.410405     0.510463   -0.428230   -0.002893  
      4.751200  7.609231 37.410405     0.053699    0.212648   -0.002450  
     -4.508231  8.814608 36.513124     0.197894    0.062966   -0.323927  
     -4.504772  8.815587  0.891584     0.275605    0.085418    0.430822  
      5.116196  8.642615 37.409211    -0.299627    0.019244   -0.029422  
 
   3 f  =   92.789555 THz   583.013969 2PiTHz 3095.126304 cm-1   383.746892 meV
             X         Y         Z           dx          dy          dz
      9.379471  0.470778 37.410405    -0.380615    0.286297   -0.004091  
      4.751200  7.609231 37.410405     0.264211    0.727504   -0.005546  
     -4.508231  8.814608 36.513124    -0.001822   -0.020004   -0.003400  
     -4.504772  8.815587  0.891584     0.163072    0.026150    0.235136  
      5.116196  8.642615 37.409211    -0.012652   -0.294570   -0.064328  
 
   4 f  =   89.329878 THz   561.276178 2PiTHz 2979.723910 cm-1   369.438813 meV
             X         Y         Z           dx          dy          dz
      9.379471  0.470778 37.410405     0.396195   -0.319453   -0.000474  
      4.751200  7.609231 37.410405     0.166999    0.468510   -0.000697  
     -4.508231  8.814608 36.513124    -0.275451   -0.077513    0.404587  
     -4.504772  8.815587  0.891584    -0.278203   -0.079131   -0.405394  
      5.116196  8.642615 37.409211    -0.002900    0.002143    0.000593  
 
   5 f  =   45.428311 THz   285.434494 2PiTHz 1515.325290 cm-1   187.876459 meV
             X         Y         Z           dx          dy          dz
      9.379471  0.470778 37.410405     0.300873    0.372997    0.145451  
      4.751200  7.609231 37.410405     0.450893   -0.160526   -0.145569  
     -4.508231  8.814608 36.513124    -0.335709   -0.245502   -0.275524  
     -4.504772  8.815587  0.891584    -0.414181    0.033880    0.278117  
      5.116196  8.642615 37.409211    -0.000614    0.000300   -0.000785  
 
   6 f  =   45.404056 THz   285.282095 2PiTHz 1514.516224 cm-1   187.776147 meV
             X         Y         Z           dx          dy          dz
      9.379471  0.470778 37.410405     0.090018    0.112573   -0.478592  
      4.751200  7.609231 37.410405     0.138365   -0.048786    0.478836  
     -4.508231  8.814608 36.513124    -0.243363    0.425847   -0.083824  
     -4.504772  8.815587  0.891584     0.017002   -0.494267    0.084717  
      5.116196  8.642615 37.409211    -0.000632    0.001145   -0.000261  
 
   7 f  =   38.602342 THz   242.545668 2PiTHz 1287.635490 cm-1   159.646511 meV
             X         Y         Z           dx          dy          dz
      9.379471  0.470778 37.410405     0.285889    0.337066   -0.335189  
      4.751200  7.609231 37.410405     0.050977   -0.086312   -0.332331  
     -4.508231  8.814608 36.513124    -0.070595    0.309093    0.091538  
     -4.504772  8.815587  0.891584     0.275788    0.405464   -0.252181  
      5.116196  8.642615 37.409211    -0.156149   -0.278067    0.239061  
 
   8 f  =   38.594333 THz   242.495343 2PiTHz 1287.368324 cm-1   159.613387 meV
             X         Y         Z           dx          dy          dz
      9.379471  0.470778 37.410405    -0.093893    0.005246   -0.186730  
      4.751200  7.609231 37.410405     0.458224   -0.127887   -0.190654  
     -4.508231  8.814608 36.513124     0.180870   -0.426320    0.094202  
     -4.504772  8.815587  0.891584     0.376139   -0.369016   -0.184354  
      5.116196  8.642615 37.409211    -0.265243    0.264750    0.134878  
 
   9 f  =   38.582382 THz   242.420259 2PiTHz 1286.969710 cm-1   159.563965 meV
             X         Y         Z           dx          dy          dz
      9.379471  0.470778 37.410405     0.191967    0.278668    0.405695  
      4.751200  7.609231 37.410405     0.254908   -0.129466    0.405979  
     -4.508231  8.814608 36.513124     0.425724    0.169009    0.301913  
     -4.504772  8.815587  0.891584     0.003369    0.049472   -0.109183  
      5.116196  8.642615 37.409211    -0.252492   -0.105928   -0.289890  
 
  10 f  =    0.575069 THz     3.613263 2PiTHz   19.182224 cm-1     2.378293 meV
             X         Y         Z           dx          dy          dz
      9.379471  0.470778 37.410405    -0.021350   -0.001604   -0.072724  
      4.751200  7.609231 37.410405     0.099234    0.032849    0.158698  
     -4.508231  8.814608 36.513124    -0.249816   -0.094632   -0.391480  
     -4.504772  8.815587  0.891584     0.277753    0.295249   -0.392535  
      5.116196  8.642615 37.409211     0.092358    0.201463   -0.604981  
 
  11 f  =    0.280763 THz     1.764087 2PiTHz    9.365250 cm-1     1.161143 meV
             X         Y         Z           dx          dy          dz
      9.379471  0.470778 37.410405    -0.243491    0.025238    0.001046  
      4.751200  7.609231 37.410405     0.103978    0.123585    0.090482  
     -4.508231  8.814608 36.513124    -0.103569    0.283290    0.079639  
     -4.504772  8.815587  0.891584    -0.173960    0.356130    0.079716  
      5.116196  8.642615 37.409211    -0.361596    0.683387    0.217405  
 
  12 f/i=    0.030210 THz     0.189814 2PiTHz    1.007691 cm-1     0.124938 meV
             X         Y         Z           dx          dy          dz
      9.379471  0.470778 37.410405     0.225210    0.101311    0.049438  
      4.751200  7.609231 37.410405     0.214313    0.098889    0.075247  
     -4.508231  8.814608 36.513124     0.229635    0.081638    0.068590  
     -4.504772  8.815587  0.891584     0.214043    0.103843    0.068926  
      5.116196  8.642615 37.409211     0.765871    0.334410    0.226631  
 
  13 f/i=    0.605740 THz     3.805974 2PiTHz   20.205299 cm-1     2.505139 meV
             X         Y         Z           dx          dy          dz
      9.379471  0.470778 37.410405    -0.198520   -0.352524    0.136118  
      4.751200  7.609231 37.410405     0.316518   -0.207231    0.444216  
     -4.508231  8.814608 36.513124    -0.231016   -0.129246   -0.044767  
     -4.504772  8.815587  0.891584     0.141192    0.297161   -0.045500  
      5.116196  8.642615 37.409211     0.024781   -0.338907    0.423643  
 
  14 f/i=    0.754875 THz     4.743017 2PiTHz   25.179907 cm-1     3.121912 meV
             X         Y         Z           dx          dy          dz
      9.379471  0.470778 37.410405    -0.236391   -0.383769   -0.237944  
      4.751200  7.609231 37.410405     0.465805   -0.185884   -0.315642  
     -4.508231  8.814608 36.513124     0.213823    0.320872    0.089944  
     -4.504772  8.815587  0.891584    -0.264195    0.105004    0.090965  
      5.116196  8.642615 37.409211     0.154956   -0.124384   -0.322048  
 
  15 f/i=    0.930237 THz     5.844848 2PiTHz   31.029349 cm-1     3.847150 meV
             X         Y         Z           dx          dy          dz
      9.379471  0.470778 37.410405     0.069073    0.081597   -0.595508  
      4.751200  7.609231 37.410405    -0.107632    0.031841    0.318511  
     -4.508231  8.814608 36.513124     0.311838   -0.462347    0.112255  
     -4.504772  8.815587  0.891584    -0.278398    0.321829    0.112445  
      5.116196  8.642615 37.409211    -0.004802   -0.023221   -0.044706  
 

 ELASTIC MODULI CONTR FROM IONIC RELAXATION (kBar)
 Direction    XX          YY          ZZ          XY          YZ          ZX
 --------------------------------------------------------------------------------
 XX         -13.9290     -4.8112     -5.5339      2.9714     -0.0006      0.0302
 YY          -4.8112    -19.6063     -0.4009     -1.1737      0.0357      0.1260
 ZZ          -5.5339     -0.4009    -18.5243     -1.5536      0.0142      0.0404
 XY           2.9714     -1.1737     -1.5536     -8.0581      0.0048     -0.0314
 YZ          -0.0006      0.0357      0.0142      0.0048     -3.6092     -1.6475
 ZX           0.0302      0.1260      0.0404     -0.0314     -1.6475     -8.9981
 --------------------------------------------------------------------------------



--------------------------------------------------------------------------------------------------------


  LATTYP: Found a hexagonal cell.
 ALAT       =    10.2313750982
 C/A-ratio  =     3.6565155755
  
  Lattice vectors:
  
 A1 = (  10.2313750981,   0.0000000000,   0.0000000000)
 A2 = (  -5.1156875490,   8.8606307507,   0.0000000000)
 A3 = (   0.0000000000,   0.0000000000,  37.4111824051)


Analysis of symmetry for initial positions (statically):
=====================================================================
 Subroutine PRICEL returns:
 Original cell was already a primitive cell.
 

 Routine SETGRP: Setting up the symmetry group for a 
 hexagonal supercell.


 Subroutine GETGRP returns: Found  1 space group operations
 (whereof  1 operations were pure point group operations)
 out of a pool of 24 trial point group operations.


The static configuration has the point symmetry C_1 .


Analysis of symmetry for dynamics (positions and initial velocities):
=====================================================================
 Subroutine PRICEL returns:
 Original cell was already a primitive cell.
 

 Routine SETGRP: Setting up the symmetry group for a 
 hexagonal supercell.


 Subroutine GETGRP returns: Found  1 space group operations
 (whereof  1 operations were pure point group operations)
 out of a pool of 24 trial point group operations.


The dynamic configuration has the point symmetry C_1 .


Analysis of magnetic symmetry:
=====================================================================
 Subroutine PRICEL returns:
 Original cell was already a primitive cell.
 

 Subroutine MAGSYM returns: Found  1 space group operations
 (whereof  1 operations were pure point group operations)
 out of a pool of  1 trial space group operations
 (whereof  1 operations were pure point group operations)
 and found also     1 'primitive' translations


The magnetic configuration has the point symmetry C_1 .
 
 KPOINTS: KPOINTS created by Atomic Simulation Env

Automatic generation of k-mesh.
Space group operators:
 irot       det(A)        alpha          n_x          n_y          n_z        tau_x        tau_y        tau_z
    1     1.000000     0.000000     1.000000     0.000000     0.000000     0.000000     0.000000     0.000000
 
 Subroutine IBZKPT returns following result:
 ===========================================
 
 Found      1 irreducible k-points:
 
 Following reciprocal coordinates:
            Coordinates               Weight
  0.000000  0.000000  0.000000      1.000000
 
 Following cartesian coordinates:
            Coordinates               Weight
  0.000000  0.000000  0.000000      1.000000
 
 writing wavefunctions
     LOOP+:  cpu time  118.38: real time  121.11
    4ORBIT:  cpu time    0.00: real time    0.00

 total amount of memory used by VASP on root node   304680. kBytes
========================================================================

   base      :      30000. kBytes
   nonl-proj :      18939. kBytes
   fftplans  :      37348. kBytes
   grid      :     215449. kBytes
   one-center:         30. kBytes
   wavefun   :       2914. kBytes
 
  
  
 General timing and accounting informations for this job:
 ========================================================
  
                  Total CPU time used (sec):     1679.989
                            User time (sec):     1497.674
                          System time (sec):      182.315
                         Elapsed time (sec):     1705.108
  
                   Maximum memory used (kb):      425380.
                   Average memory used (kb):           0.
  
                          Minor page faults:       187129
                          Major page faults:            3
                 Voluntary context switches:         7319
