 vasp.5.3.5 31Mar14 (build Oct 16 2014 10:50:22) complex                        
  
 executed on               ARCHER date 2015.02.12  13:01:37
 running on  120 total cores
 distrk:  each k-point on   24 cores,    5 groups
 distr:  one band on NCORES_PER_BAND=   1 cores,   24 groups


--------------------------------------------------------------------------------------------------------


 INCAR:
 POTCAR:    PAW_PBE Fe_pv 02Aug2007               
 POTCAR:    PAW_PBE O 08Apr2002                   
 POTCAR:    PAW_PBE C 08Apr2002                   
 POTCAR:    PAW_PBE H 15Jun2001                   

 ----------------------------------------------------------------------------- 
|                                                                             |
|           W    W    AA    RRRRR   N    N  II  N    N   GGGG   !!!           |
|           W    W   A  A   R    R  NN   N  II  NN   N  G    G  !!!           |
|           W    W  A    A  R    R  N N  N  II  N N  N  G       !!!           |
|           W WW W  AAAAAA  RRRRR   N  N N  II  N  N N  G  GGG   !            |
|           WW  WW  A    A  R   R   N   NN  II  N   NN  G    G                |
|           W    W  A    A  R    R  N    N  II  N    N   GGGG   !!!           |
|                                                                             |
|      For optimal performance we recommend to set                            |
|        NCORE= 4 - approx SQRT( number of cores)                             |
|      NCORE specifies how many cores store one orbital (NPAR=cpu/NCORE).     |
|      This setting can  greatly improve the performance of VASP for DFT.     |
|      The default, NPAR=number of cores might be grossly inefficient         |
|      on modern multi-core architectures or massively parallel machines.     |
|      Do your own testing !!!!                                               |
|      Unfortunately you need to use the default for GW and RPA calculations. |
|      (for HF NCORE is supported but not extensively tested yet)             |
|                                                                             |
 ----------------------------------------------------------------------------- 


 ----------------------------------------------------------------------------- 
|                                                                             |
|           W    W    AA    RRRRR   N    N  II  N    N   GGGG   !!!           |
|           W    W   A  A   R    R  NN   N  II  NN   N  G    G  !!!           |
|           W    W  A    A  R    R  N N  N  II  N N  N  G       !!!           |
|           W WW W  AAAAAA  RRRRR   N  N N  II  N  N N  G  GGG   !            |
|           WW  WW  A    A  R   R   N   NN  II  N   NN  G    G                |
|           W    W  A    A  R    R  N    N  II  N    N   GGGG   !!!           |
|                                                                             |
|      You have enabled k-point parallelism (KPAR>1).                         |
|      This developmental code was originally  written by Paul Kent at ORNL,  |
|      and carefully double checked in Vienna.                                |
|      GW as well as linear response parallelism added by Martijn Marsman     |
|      and Georg Kresse.                                                      |
|      Carefully verify results versus KPAR=1.                                |
|      Report problems to Paul Kent and Vienna.                               |
|                                                                             |
 ----------------------------------------------------------------------------- 

 POTCAR:    PAW_PBE Fe_pv 02Aug2007               
   VRHFIN =Fe:  3pd7s1                                                          
   LEXCH  = PE                                                                  
   EATOM  =  2457.4239 eV,  180.6156 Ry                                         
                                                                                
   TITEL  = PAW_PBE Fe_pv 02Aug2007                                             
   LULTRA =        F    use ultrasoft PP ?                                      
   IUNSCR =        1    unscreen: 0-lin 1-nonlin 2-no                           
   RPACOR =    1.750    partial core radius                                     
   POMASS =   55.847; ZVAL   =   14.000    mass and valenz                      
   RCORE  =    2.200    outmost cutoff radius                                   
   RWIGS  =    2.200; RWIGS  =    1.164    wigner-seitz radius (au A)           
   ENMAX  =  293.238; ENMIN  =  219.928 eV                                      
   ICORE  =        3    local potential                                         
   LCOR   =        T    correct aug charges                                     
   LPAW   =        T    paw PP                                                  
   EAUG   =  578.342                                                            
   DEXC   =    0.000                                                            
   RMAX   =    2.249    core radius for proj-oper                               
   RAUG   =    1.300    factor for augmentation sphere                          
   RDEP   =    2.296    radius for radial grids                                 
   RDEPT  =    1.766    core radius for aug-charge                              
                                                                                
   Atomic configuration                                                         
    8 entries                                                                   
     n  l   j            E        occ.                                          
     1  0  0.50     -6993.8440   2.0000                                         
     2  0  0.50      -814.6047   2.0000                                         
     2  1  1.50      -693.3689   6.0000                                         
     3  0  0.50       -89.4732   2.0000                                         
     3  1  1.50       -55.6373   6.0000                                         
     3  2  2.50        -3.8151   7.0000                                         
     4  0  0.50        -4.2551   1.0000                                         
     4  3  2.50        -1.3606   0.0000                                         
   Description                                                                  
     l       E           TYP  RCUT    TYP  RCUT                                 
     1    -55.6372668     23  2.000                                             
     1     -5.4423304     23  2.000                                             
     2     -3.8151096     23  2.200                                             
     2     -5.1756922     23  2.200                                             
     0     -4.2550951     23  2.200                                             
     0     27.2116520     23  2.200                                             
     3     -1.3605826     23  2.200                                             
  local pseudopotential read in
  partial core-charges read in
  partial kinetic energy density read in
  atomic valenz-charges read in
  non local Contribution for L=           1  read in
    real space projection operators read in
  non local Contribution for L=           1  read in
    real space projection operators read in
  non local Contribution for L=           2  read in
    real space projection operators read in
  non local Contribution for L=           2  read in
    real space projection operators read in
  non local Contribution for L=           0  read in
    real space projection operators read in
  non local Contribution for L=           0  read in
    real space projection operators read in
    PAW grid and wavefunctions read in
 
   number of l-projection  operators is LMAX  =           6
   number of lm-projection operators is LMMAX =          18
 
 POTCAR:    PAW_PBE O 08Apr2002                   
   VRHFIN =O: s2p4                                                              
   LEXCH  = PE                                                                  
   EATOM  =   432.3788 eV,   31.7789 Ry                                         
                                                                                
   TITEL  = PAW_PBE O 08Apr2002                                                 
   LULTRA =        F    use ultrasoft PP ?                                      
   IUNSCR =        1    unscreen: 0-lin 1-nonlin 2-no                           
   RPACOR =    1.200    partial core radius                                     
   POMASS =   16.000; ZVAL   =    6.000    mass and valenz                      
   RCORE  =    1.520    outmost cutoff radius                                   
   RWIGS  =    1.550; RWIGS  =    0.820    wigner-seitz radius (au A)           
   ENMAX  =  400.000; ENMIN  =  300.000 eV                                      
   ICORE  =        2    local potential                                         
   LCOR   =        T    correct aug charges                                     
   LPAW   =        T    paw PP                                                  
   EAUG   =  605.392                                                            
   DEXC   =    0.000                                                            
   RMAX   =    1.553    core radius for proj-oper                               
   RAUG   =    1.300    factor for augmentation sphere                          
   RDEP   =    1.550    radius for radial grids                                 
   RDEPT  =    1.329    core radius for aug-charge                              
                                                                                
   Atomic configuration                                                         
    4 entries                                                                   
     n  l   j            E        occ.                                          
     1  0  0.50      -514.6923   2.0000                                         
     2  0  0.50       -23.9615   2.0000                                         
     2  1  0.50        -9.0305   4.0000                                         
     3  2  1.50        -9.5241   0.0000                                         
   Description                                                                  
     l       E           TYP  RCUT    TYP  RCUT                                 
     0    -23.9615318     23  1.200                                             
     0     -9.5240782     23  1.200                                             
     1     -9.0304911     23  1.520                                             
     1      8.1634956     23  1.520                                             
     2     -9.5240782      7  1.500                                             
  local pseudopotential read in
  partial core-charges read in
  partial kinetic energy density read in
  kinetic energy density of atom read in
  atomic valenz-charges read in
  non local Contribution for L=           0  read in
    real space projection operators read in
  non local Contribution for L=           0  read in
    real space projection operators read in
  non local Contribution for L=           1  read in
    real space projection operators read in
  non local Contribution for L=           1  read in
    real space projection operators read in
    PAW grid and wavefunctions read in
 
   number of l-projection  operators is LMAX  =           4
   number of lm-projection operators is LMMAX =           8
 
 POTCAR:    PAW_PBE C 08Apr2002                   
   VRHFIN =C: s2p2                                                              
   LEXCH  = PE                                                                  
   EATOM  =   147.1560 eV,   10.8157 Ry                                         
                                                                                
   TITEL  = PAW_PBE C 08Apr2002                                                 
   LULTRA =        F    use ultrasoft PP ?                                      
   IUNSCR =        1    unscreen: 0-lin 1-nonlin 2-no                           
   RPACOR =    1.200    partial core radius                                     
   POMASS =   12.011; ZVAL   =    4.000    mass and valenz                      
   RCORE  =    1.500    outmost cutoff radius                                   
   RWIGS  =    1.630; RWIGS  =    0.863    wigner-seitz radius (au A)           
   ENMAX  =  400.000; ENMIN  =  300.000 eV                                      
   ICORE  =        2    local potential                                         
   LCOR   =        T    correct aug charges                                     
   LPAW   =        T    paw PP                                                  
   EAUG   =  644.873                                                            
   DEXC   =    0.000                                                            
   RMAX   =    1.529    core radius for proj-oper                               
   RAUG   =    1.300    factor for augmentation sphere                          
   RDEP   =    1.501    radius for radial grids                                 
   RDEPT  =    1.300    core radius for aug-charge                              
                                                                                
   Atomic configuration                                                         
    4 entries                                                                   
     n  l   j            E        occ.                                          
     1  0  0.50      -273.3789   2.0000                                         
     2  0  0.50       -13.7508   2.0000                                         
     2  1  0.50        -5.2854   2.0000                                         
     3  2  1.50        -5.4423   0.0000                                         
   Description                                                                  
     l       E           TYP  RCUT    TYP  RCUT                                 
     0    -13.7508458     23  1.200                                             
     0     -8.2022199     23  1.200                                             
     1     -5.2854383     23  1.500                                             
     1     34.0145650     23  1.500                                             
     2     -5.4423304      7  1.500                                             
  local pseudopotential read in
  partial core-charges read in
  partial kinetic energy density read in
  atomic valenz-charges read in
  non local Contribution for L=           0  read in
    real space projection operators read in
  non local Contribution for L=           0  read in
    real space projection operators read in
  non local Contribution for L=           1  read in
    real space projection operators read in
  non local Contribution for L=           1  read in
    real space projection operators read in
    PAW grid and wavefunctions read in
 
   number of l-projection  operators is LMAX  =           4
   number of lm-projection operators is LMMAX =           8
 
 POTCAR:    PAW_PBE H 15Jun2001                   
   VRHFIN =H: ultrasoft test                                                    
   LEXCH  = PE                                                                  
   EATOM  =    12.4884 eV,    0.9179 Ry                                         
                                                                                
   TITEL  = PAW_PBE H 15Jun2001                                                 
   LULTRA =        F    use ultrasoft PP ?                                      
   IUNSCR =        0    unscreen: 0-lin 1-nonlin 2-no                           
   RPACOR =    0.000    partial core radius                                     
   POMASS =    1.000; ZVAL   =    1.000    mass and valenz                      
   RCORE  =    1.100    outmost cutoff radius                                   
   RWIGS  =    0.700; RWIGS  =    0.370    wigner-seitz radius (au A)           
   ENMAX  =  250.000; ENMIN  =  200.000 eV                                      
   RCLOC  =    0.701    cutoff for local pot                                    
   LCOR   =        T    correct aug charges                                     
   LPAW   =        T    paw PP                                                  
   EAUG   =  400.000                                                            
   RMAX   =    1.123    core radius for proj-oper                               
   RAUG   =    1.200    factor for augmentation sphere                          
   RDEP   =    1.112    radius for radial grids                                 
   RDEPT  =    0.926    core radius for aug-charge                              
                                                                                
   Atomic configuration                                                         
    2 entries                                                                   
     n  l   j            E        occ.                                          
     1  0  0.50        -6.4927   1.0000                                         
     2  1  0.50        -3.4015   0.0000                                         
   Description                                                                  
     l       E           TYP  RCUT    TYP  RCUT                                 
     0     -6.4927494     23  1.100                                             
     0      6.8029130     23  1.100                                             
     1     -4.0817478     23  1.100                                             
  local pseudopotential read in
  atomic valenz-charges read in
  non local Contribution for L=           0  read in
    real space projection operators read in
  non local Contribution for L=           0  read in
    real space projection operators read in
  non local Contribution for L=           1  read in
    real space projection operators read in
    PAW grid and wavefunctions read in
 
   number of l-projection  operators is LMAX  =           3
   number of lm-projection operators is LMMAX =           5
 
 Optimization of the real space projectors (new method)

 maximal supplied QI-value         = 17.01
 optimisation between [QCUT,QGAM] = [ 11.57, 23.30] = [ 37.45,152.03] Ry 
 Optimized for a Real-space Cutoff    1.40 Angstroem

   l    n(q)    QCUT    max X(q) W(low)/X(q) W(high)/X(q)  e(spline) 
   1      9    11.565     4.267    0.25E-03    0.26E-03    0.15E-06
   1      9    11.565     5.750    0.39E-03    0.39E-03    0.22E-06
   2      9    11.565    53.656    0.10E-03    0.13E-03    0.16E-06
   2      9    11.565    49.521    0.10E-03    0.13E-03    0.16E-06
   0     10    11.565    31.246    0.56E-04    0.21E-04    0.74E-07
   0     10    11.565    12.201    0.39E-04    0.19E-04    0.62E-07
 Optimization of the real space projectors (new method)

 maximal supplied QI-value         = 24.76
 optimisation between [QCUT,QGAM] = [ 11.64, 23.27] = [ 37.91,151.63] Ry 
 Optimized for a Real-space Cutoff    1.04 Angstroem

   l    n(q)    QCUT    max X(q) W(low)/X(q) W(high)/X(q)  e(spline) 
   0      7    11.635    20.381    0.14E-03    0.49E-03    0.18E-06
   0      7    11.635    15.268    0.16E-03    0.52E-03    0.19E-06
   1      7    11.635     5.964    0.30E-03    0.44E-03    0.22E-06
   1      7    11.635     5.382    0.27E-03    0.34E-03    0.19E-06
 Optimization of the real space projectors (new method)

 maximal supplied QI-value         = 25.13
 optimisation between [QCUT,QGAM] = [ 11.56, 23.12] = [ 37.43,149.72] Ry 
 Optimized for a Real-space Cutoff    1.04 Angstroem

   l    n(q)    QCUT    max X(q) W(low)/X(q) W(high)/X(q)  e(spline) 
   0      7    11.561   115.676    0.20E-03    0.60E-03    0.21E-06
   0      7    11.561    87.132    0.20E-03    0.59E-03    0.21E-06
   1      7    11.561     4.429    0.23E-03    0.35E-03    0.15E-06
   1      7    11.561     2.733    0.18E-03    0.25E-03    0.12E-06
 Optimization of the real space projectors (new method)

 maximal supplied QI-value         = 34.20
 optimisation between [QCUT,QGAM] = [ 11.63, 23.26] = [ 37.87,151.49] Ry 
 Optimized for a Real-space Cutoff    1.14 Angstroem

   l    n(q)    QCUT    max X(q) W(low)/X(q) W(high)/X(q)  e(spline) 
   0      8    11.629    19.460    0.27E-03    0.65E-03    0.17E-06
   0      8    11.629    12.209    0.25E-03    0.62E-03    0.16E-06
   1      7    11.629     4.655    0.29E-03    0.85E-04    0.19E-06
  PAW_PBE Fe_pv 02Aug2007               :
 energy of atom  1       EATOM=-2457.4239
 kinetic energy error for atom=    0.0062 (will be added to EATOM!!)
  PAW_PBE O 08Apr2002                   :
 energy of atom  2       EATOM= -432.3788
 kinetic energy error for atom=    0.0208 (will be added to EATOM!!)
  PAW_PBE C 08Apr2002                   :
 energy of atom  3       EATOM= -147.1560
 kinetic energy error for atom=    0.0071 (will be added to EATOM!!)
  PAW_PBE H 15Jun2001                   :
 energy of atom  4       EATOM=  -12.4884
 kinetic energy error for atom=    0.0014 (will be added to EATOM!!)
 
 
 POSCAR:  hematite with methane                  
  positions in direct lattice
  No initial velocities read in
 exchange correlation table for  LEXCH =        8
   RHO(1)=    0.500       N(1)  =     2000
   RHO(2)=  100.500       N(2)  =     4000

 VTST: version 3.1, (03/28/14)

 CHAIN: initializing optimizer
 
 OPT: Using VASP Conjugate-Gradient optimizer
 CHAIN: Read ICHAIN            0
 
 POSCAR:  hematite with methane                  
  positions in direct lattice
  No initial velocities read in
 


--------------------------------------------------------------------------------------------------------


 ion  position               nearest neighbor table
   1  0.027  0.044  0.139-  98 1.98  64 1.98  84 1.98  49 2.15  51 2.16 107 2.16
   2  0.029  0.046  0.248-  59 1.97  55 1.98 111 1.99  54 2.11  88 2.14  68 2.23
   3  0.026  0.044  0.063-  76 1.94  56 1.94  96 1.94 107 2.10  51 2.10  49 2.10
   4  0.030  0.045  0.324-  65 1.93  63 1.93 115 1.94  88 2.10  54 2.11  68 2.14
   5  0.362  0.212  0.263-  70 1.98  54 1.98  50 1.98  73 2.12  57 2.13  59 2.14
   6  0.360  0.211  0.359-  83 1.82  61 1.82  63 1.82
   7  0.360  0.211  0.185-  64 1.98  80 1.98  66 1.98  59 2.13  57 2.13  73 2.16
   8  0.360  0.211  0.073-  69 2.03  49 2.03  53 2.03  78 2.06  58 2.06  56 2.06
   9  0.193  0.378  0.032-  56 1.81  94 1.81  60 1.81
  10  0.193  0.378  0.124-  53 1.98  85 1.98  51 1.98  62 2.12  64 2.12 102 2.12
  11  0.195  0.376  0.314-  65 2.03  86 2.04  54 2.04  61 2.04  52 2.06  99 2.06
  12  0.194  0.378  0.201-  95 1.97  55 1.97  57 1.97 102 2.14  64 2.15  62 2.15
  13  0.526  0.044  0.139-  66 1.98 116 1.98  82 1.98  89 2.16  69 2.16  67 2.16
  14  0.525  0.042  0.248-  93 1.97  73 1.98  77 1.99  50 2.12 106 2.14  72 2.22
  15  0.527  0.044  0.063-  74 1.94  58 1.94 114 1.94  69 2.10  67 2.10  89 2.10
  16  0.525  0.044  0.324-  81 1.93  97 1.94  83 1.94  50 2.10  72 2.12 106 2.13
  17  0.860  0.211  0.260-  68 1.99  72 1.99  52 1.99  77 2.08  75 2.08  55 2.08
  18  0.860  0.211  0.339-  81 1.84  79 1.84  65 1.84
  19  0.860  0.211  0.184-  62 1.97  84 1.97  82 1.97  55 2.15  77 2.16  75 2.16
  20  0.860  0.211  0.073-  71 2.03  67 2.03  51 2.04  76 2.06  60 2.06  74 2.06
  21  0.693  0.378  0.032-  78 1.81  74 1.81 112 1.81
  22  0.693  0.378  0.124- 103 1.98  69 1.98  71 1.98  82 2.12 120 2.12  80 2.12
  23  0.693  0.380  0.314-  70 2.03  79 2.03 117 2.04 104 2.05  72 2.05  83 2.06
  24  0.693  0.378  0.201-  73 1.97  75 1.97 113 1.98  80 2.14 120 2.15  82 2.15
  25  0.026  0.545  0.139- 100 1.98 120 1.98  62 1.98  87 2.15  71 2.16  85 2.16
  26  0.026  0.546  0.248-  91 1.97  95 1.99  75 1.99 104 2.13  90 2.14  52 2.22
  27  0.026  0.544  0.063-  92 1.94  60 1.94 112 1.94  71 2.10  85 2.10  87 2.10
  28  0.027  0.546  0.324-  79 1.93 101 1.94  99 1.94  90 2.10 104 2.12  52 2.13
  29  0.359  0.709  0.262-  86 1.98 106 1.98  90 1.99  95 2.11 109 2.12  93 2.13
  30  0.360  0.711  0.354-  99 1.81 119 1.81  97 1.82
  31  0.360  0.711  0.185- 116 1.97 102 1.97 100 1.98  93 2.13 109 2.14  95 2.16
  32  0.360  0.711  0.073-  85 2.03  89 2.03 105 2.04  94 2.06 114 2.06  92 2.06
  33  0.193  0.878  0.032-  92 1.81  96 1.81  58 1.81
  34  0.193  0.878  0.124-  89 1.98  49 1.98  87 1.98 100 2.12  66 2.12  98 2.12
  35  0.194  0.879  0.313-  50 2.03  88 2.04  90 2.05  63 2.05  97 2.05 101 2.06
  36  0.193  0.878  0.201-  91 1.97  59 1.97  93 1.97  98 2.14  66 2.14 100 2.14
  37  0.527  0.544  0.139-  80 1.98 102 1.98 118 1.98 103 2.16 105 2.16  53 2.16
  38  0.527  0.544  0.247- 113 1.98  57 1.98 109 1.98  70 2.14  86 2.16 108 2.16
  39  0.526  0.544  0.063-  94 1.94 110 1.94  78 1.94 105 2.10  53 2.10 103 2.10
  40  0.526  0.543  0.323-  61 1.94 117 1.94 119 1.95  70 2.10  86 2.10 108 2.11
  41  0.860  0.712  0.262- 108 1.98 104 1.98  88 1.98 111 2.11 113 2.13  91 2.13
  42  0.860  0.711  0.354- 115 1.81 117 1.81 101 1.81
  43  0.860  0.711  0.185- 120 1.97 118 1.97  98 1.98 113 2.13  91 2.14 111 2.16
  44  0.860  0.711  0.073- 107 2.03 103 2.03  87 2.04 112 2.06 110 2.06  96 2.06
  45  0.693  0.878  0.032- 110 1.81 114 1.81  76 1.81
  46  0.693  0.877  0.124- 105 1.98 107 1.98  67 1.98  84 2.12 116 2.12 118 2.12
  47  0.691  0.876  0.314-  81 2.03 108 2.04 106 2.04 119 2.04  68 2.05 115 2.06
  48  0.693  0.877  0.201- 111 1.97  77 1.97 109 1.98 118 2.14 116 2.15  84 2.15
  49  0.182  0.044  0.100-  34 1.98   8 2.03   3 2.10   1 2.15
  50  0.373  0.043  0.286-   5 1.98  35 2.03  16 2.10  14 2.12
  51  0.027  0.200  0.100-  10 1.98  20 2.04   3 2.10   1 2.16
  52  0.022  0.383  0.288-  17 1.99  11 2.06  28 2.13  26 2.22
  53  0.371  0.389  0.100-  10 1.98   8 2.03  39 2.10  37 2.16
  54  0.182  0.199  0.286-   5 1.98  11 2.04   4 2.11   2 2.11
  55  0.012  0.210  0.224-  12 1.97   2 1.98  17 2.08  19 2.15
  56  0.200  0.205  0.039-   9 1.81   3 1.94   8 2.06
  57  0.361  0.364  0.224-  12 1.97  38 1.98   5 2.13   7 2.13
  58  0.366  0.057  0.039-  33 1.81  15 1.94   8 2.06
  59  0.207  0.059  0.224-   2 1.97  36 1.97   7 2.13   5 2.14
  60  0.014  0.371  0.039-   9 1.81  27 1.94  20 2.06
  61  0.355  0.381  0.347-   6 1.82  40 1.94  11 2.04
  62  0.041  0.379  0.162-  19 1.97  25 1.98  10 2.12  12 2.15
  63  0.192  0.035  0.347-   6 1.82   4 1.93  35 2.05
  64  0.193  0.224  0.162-   7 1.98   1 1.98  10 2.12  12 2.15
  65  0.041  0.218  0.347-  18 1.84   4 1.93  11 2.03
  66  0.347  0.030  0.162-  13 1.98   7 1.98  34 2.12  36 2.14
  67  0.682  0.044  0.100-  46 1.98  20 2.03  15 2.10  13 2.16
  68  0.870  0.050  0.288-  17 1.99  47 2.05   4 2.14   2 2.23
  69  0.527  0.200  0.100-  22 1.98   8 2.03  15 2.10  13 2.16
  70  0.529  0.391  0.286-   5 1.98  23 2.03  40 2.10  38 2.14
  71  0.871  0.389  0.100-  22 1.98  20 2.03  27 2.10  25 2.16
  72  0.687  0.201  0.287-  17 1.99  23 2.05  16 2.12  14 2.22
  73  0.514  0.210  0.224-  24 1.97  14 1.98   5 2.12   7 2.16
  74  0.700  0.205  0.039-  21 1.81  15 1.94  20 2.06
  75  0.861  0.365  0.224-  24 1.97  26 1.99  17 2.08  19 2.16
  76  0.866  0.057  0.039-  45 1.81   3 1.94  20 2.06
  77  0.706  0.058  0.224-  48 1.97  14 1.99  17 2.08  19 2.16
  78  0.514  0.371  0.039-  21 1.81  39 1.94   8 2.06
  79  0.852  0.384  0.347-  18 1.84  28 1.93  23 2.03
  80  0.541  0.378  0.162-   7 1.98  37 1.98  22 2.12  24 2.14
  81  0.686  0.031  0.347-  18 1.84  16 1.93  47 2.03
  82  0.692  0.224  0.162-  19 1.97  13 1.98  22 2.12  24 2.15
  83  0.535  0.218  0.347-   6 1.82  16 1.94  23 2.06
  84  0.846  0.030  0.162-  19 1.97   1 1.98  46 2.12  48 2.15
  85  0.182  0.544  0.100-  10 1.98  32 2.03  27 2.10  25 2.16
  86  0.371  0.543  0.286-  29 1.98  11 2.04  40 2.10  38 2.16
  87  0.027  0.700  0.100-  34 1.98  44 2.04  27 2.10  25 2.15
  88  0.027  0.891  0.286-  41 1.98  35 2.04   4 2.10   2 2.14
  89  0.371  0.889  0.100-  34 1.98  32 2.03  15 2.10  13 2.16
  90  0.181  0.699  0.286-  29 1.99  35 2.05  28 2.10  26 2.14
  91  0.013  0.711  0.224-  26 1.97  36 1.97  41 2.13  43 2.14
  92  0.200  0.705  0.039-  33 1.81  27 1.94  32 2.06
  93  0.360  0.863  0.224-  14 1.97  36 1.97  31 2.13  29 2.13
  94  0.366  0.557  0.039-   9 1.81  39 1.94  32 2.06
  95  0.205  0.557  0.224-  12 1.97  26 1.99  29 2.11  31 2.16
  96  0.014  0.871  0.039-  33 1.81   3 1.94  44 2.06
  97  0.352  0.883  0.348-  30 1.82  16 1.94  35 2.05
  98  0.040  0.878  0.162-  43 1.98   1 1.98  34 2.12  36 2.14
  99  0.189  0.533  0.347-  30 1.81  28 1.94  11 2.06
 100  0.192  0.724  0.162-  31 1.98  25 1.98  34 2.12  36 2.14
 101  0.040  0.720  0.348-  42 1.81  28 1.94  35 2.06
 102  0.346  0.530  0.162-  31 1.97  37 1.98  10 2.12  12 2.14
 103  0.682  0.544  0.100-  22 1.98  44 2.03  39 2.10  37 2.16
 104  0.872  0.546  0.286-  41 1.98  23 2.05  28 2.12  26 2.13
 105  0.527  0.700  0.100-  46 1.98  32 2.04  39 2.10  37 2.16
 106  0.525  0.887  0.286-  29 1.98  47 2.04  16 2.13  14 2.14
 107  0.871  0.889  0.100-  46 1.98  44 2.03   3 2.10   1 2.16
 108  0.682  0.700  0.286-  41 1.98  47 2.04  40 2.11  38 2.16
 109  0.512  0.710  0.224-  48 1.98  38 1.98  29 2.12  31 2.14
 110  0.700  0.705  0.039-  45 1.81  39 1.94  44 2.06
 111  0.861  0.866  0.224-  48 1.97   2 1.99  41 2.11  43 2.16
 112  0.866  0.557  0.039-  21 1.81  27 1.94  44 2.06
 113  0.707  0.559  0.224-  24 1.98  38 1.98  41 2.13  43 2.13
 114  0.514  0.871  0.039-  45 1.81  15 1.94  32 2.06
 115  0.854  0.883  0.347-  42 1.81   4 1.94  47 2.06
 116  0.540  0.878  0.162-  31 1.97  13 1.98  46 2.12  48 2.15
 117  0.687  0.532  0.348-  42 1.81  40 1.94  23 2.04
 118  0.693  0.724  0.162-  43 1.97  37 1.98  46 2.12  48 2.14
 119  0.538  0.716  0.348-  30 1.81  40 1.95  47 2.04
 120  0.847  0.531  0.162-  43 1.97  25 1.98  22 2.12  24 2.15
 121  0.355  0.208  0.430- 124 1.09 125 1.10 123 1.10 122 1.11
 122  0.450  0.214  0.415- 121 1.11
 123  0.268  0.217  0.415- 121 1.10
 124  0.300  0.099  0.444- 121 1.09
 125  0.403  0.302  0.449- 121 1.10
 
  LATTYP: Found a hexagonal cell.
 ALAT       =    10.2313750982
 C/A-ratio  =     3.6565155755
  
  Lattice vectors:
  
 A1 = (  10.2313750981,   0.0000000000,   0.0000000000)
 A2 = (  -5.1156875490,   8.8606307507,   0.0000000000)
 A3 = (   0.0000000000,   0.0000000000,  37.4111824051)


Analysis of symmetry for initial positions (statically):
=====================================================================
 Subroutine PRICEL returns:
 Original cell was already a primitive cell.
 

 Routine SETGRP: Setting up the symmetry group for a 
 hexagonal supercell.


 Subroutine GETGRP returns: Found  1 space group operations
 (whereof  1 operations were pure point group operations)
 out of a pool of 24 trial point group operations.


The static configuration has the point symmetry C_1 .


Analysis of symmetry for dynamics (positions and initial velocities):
=====================================================================
 Subroutine PRICEL returns:
 Original cell was already a primitive cell.
 

 Routine SETGRP: Setting up the symmetry group for a 
 hexagonal supercell.


 Subroutine GETGRP returns: Found  1 space group operations
 (whereof  1 operations were pure point group operations)
 out of a pool of 24 trial point group operations.


The dynamic configuration has the point symmetry C_1 .


Analysis of constrained symmetry for selective dynamics:
=====================================================================
 Subroutine PRICEL returns:
 Original cell was already a primitive cell.
 

 Routine SETGRP: Setting up the symmetry group for a 
 hexagonal supercell.


 Subroutine GETGRP returns: Found  1 space group operations
 (whereof  1 operations were pure point group operations)
 out of a pool of 24 trial point group operations.


The constrained configuration has the point symmetry C_1 .


Analysis of magnetic symmetry:
=====================================================================
 Subroutine PRICEL returns:
 Original cell was already a primitive cell.
 

 Subroutine MAGSYM returns: Found  1 space group operations
 (whereof  1 operations were pure point group operations)
 out of a pool of  1 trial space group operations
 (whereof  1 operations were pure point group operations)
 and found also     1 'primitive' translations


The magnetic configuration has the point symmetry C_1 .
 
 
 KPOINTS: kpoints                                 

Automatic generation of k-mesh.
Space group operators:
 irot       det(A)        alpha          n_x          n_y          n_z        tau_x        tau_y        tau_z
    1     1.000000     0.000001     1.000000     0.000000     0.000000     0.000000     0.000000     0.000000
 
 Subroutine IBZKPT returns following result:
 ===========================================
 
 Found      5 irreducible k-points:
 
 Following reciprocal coordinates:
            Coordinates               Weight
  0.000000  0.000000  0.000000      1.000000
  0.333333 -0.000000  0.000000      2.000000
  0.000000  0.333333  0.000000      2.000000
  0.333333  0.333333  0.000000      2.000000
 -0.333333  0.333333  0.000000      2.000000
 
 Following cartesian coordinates:
            Coordinates               Weight
  0.000000  0.000000  0.000000      1.000000
  0.032580  0.018810  0.000000      2.000000
  0.000000  0.037620  0.000000      2.000000
  0.032580  0.056429  0.000000      2.000000
 -0.032580  0.018810  0.000000      2.000000
 


--------------------------------------------------------------------------------------------------------




 Dimension of arrays:
   k-points           NKPTS =      5   k-points in BZ     NKDIM =      5   number of bands    NBANDS=    672
   number of dos      NEDOS =    301   number of ions     NIONS =    125
   non local maximal  LDIM  =      6   non local SUM 2l+1 LMDIM =     18
   total plane-waves  NPLWV = 756000
   max r-space proj   IRMAX =   2632   max aug-charges    IRDMAX=   6801
   dimension x,y,z NGX =    60 NGY =   60 NGZ =  210
   dimension x,y,z NGXF=   120 NGYF=  120 NGZF=  420
   support grid    NGXF=   120 NGYF=  120 NGZF=  420
   ions per type =              48  72   1   4
 NGX,Y,Z   is equivalent  to a cutoff of   9.75,  9.75,  9.33 a.u.
 NGXF,Y,Z  is equivalent  to a cutoff of  19.50, 19.50, 18.66 a.u.


 I would recommend the setting:
   dimension x,y,z NGX =    57 NGY =   57 NGZ =  209
 SYSTEM =  fe2O3 (0001) surface scan               
 POSCAR =   hematite with methane                  

 Startparameter for this run:
   NWRITE =      2    write-flag & timer
   PREC   = normal    normal or accurate (medium, high low for compatibility)
   ISTART =      0    job   : 0-new  1-cont  2-samecut
   ICHARG =      2    charge: 1-file 2-atom 10-const
   ISPIN  =      2    spin polarized calculation?
   LNONCOLLINEAR =      F non collinear calculations
   LSORBIT =      F    spin-orbit coupling
   INIWAV =      1    electr: 0-lowe 1-rand  2-diag
   LASPH  =      T    aspherical Exc in radial PAW
   METAGGA=      F    non-selfconsistent MetaGGA calc.

 Electronic Relaxation 1
   ENCUT  =  520.0 eV  38.22 Ry    6.18 a.u.  19.02 19.02 69.56*2*pi/ulx,y,z
   ENINI  =  520.0     initial cutoff
   ENAUG  =  644.9 eV  augmentation charge cutoff
   NELM   =     30;   NELMIN=  5; NELMDL= -5     # of ELM steps 
   EDIFF  = 0.1E-04   stopping-criterion for ELM
   LREAL  =      T    real-space projection
   NLSPLINE    = F    spline interpolate recip. space projectors
   LCOMPAT=      F    compatible to vasp.4.4
   GGA_COMPAT  = T    GGA compatible to vasp.4.4-vasp.4.6
   LMAXPAW     = -100 max onsite density
   LMAXMIX     =    4 max onsite mixed and CHGCAR
   VOSKOWN=      1    Vosko Wilk Nusair interpolation
   ROPT   =   -0.00050  -0.00050  -0.00050  -0.00050
 Ionic relaxation
   EDIFFG = -.6E-01   stopping-criterion for IOM
   NSW    =      1    number of steps for IOM
   NBLOCK =      1;   KBLOCK =      1    inner block; outer block 
   IBRION =      2    ionic relax: 0-MD 1-quasi-New 2-CG
   NFREE  =      1    steps in history (QN), initial steepest desc. (CG)
   ISIF   =      2    stress and relaxation
   IWAVPR =     11    prediction:  0-non 1-charg 2-wave 3-comb
   ISYM   =      2    0-nonsym 1-usesym 2-fastsym
   LCORR  =      T    Harris-Foulkes like correction to forces

   POTIM  = 0.0050    time-step for ionic-motion
   TEIN   =    0.0    initial temperature
   TEBEG  =    0.0;   TEEND  =   0.0 temperature during run
   SMASS  =  -3.00    Nose mass-parameter (am)
   estimated Nose-frequenzy (Omega)   =  0.10E-29 period in steps =****** mass=  -0.239E-26a.u.
   SCALEE = 1.0000    scale energy and forces
   NPACO  =    256;   APACO  = 16.0  distance and # of slots for P.C.
   PSTRESS=    0.0 pullay stress

  Mass of Ions in am
   POMASS =  55.85 16.00 12.01  1.00
  Ionic Valenz
   ZVAL   =  14.00  6.00  4.00  1.00
  Atomic Wigner-Seitz radii
   RWIGS  =  -1.00 -1.00 -1.00 -1.00
  virtual crystal weights 
   VCA    =   1.00  1.00  1.00  1.00
   NELECT =    1112.0000    total number of electrons
   NUPDOWN=       0.0000    fix difference up-down

 DOS related values:
   EMIN   =  10.00;   EMAX   =-10.00  energy-range for DOS
   EFERMI =   0.00
   ISMEAR =     0;   SIGMA  =   0.10  broadening in eV -4-tet -1-fermi 0-gaus

 Electronic relaxation 2 (details)
   IALGO  =     68    algorithm
   LDIAG  =      T    sub-space diagonalisation (order eigenvalues)
   LSUBROT=      F    optimize rotation matrix (better conditioning)
   TURBO    =      0    0=normal 1=particle mesh
   IRESTART =      0    0=no restart 2=restart with 2 vectors
   NREBOOT  =      0    no. of reboots
   NMIN     =      0    reboot dimension
   EREF     =   0.00    reference energy to select bands
   IMIX   =      4    mixing-type and parameters
     AMIX     =   0.01;   BMIX     =  0.00
     AMIX_MAG =   0.80;   BMIX_MAG =  0.00
     AMIN     =   0.01
     WC   =   100.;   INIMIX=   1;  MIXPRE=   1;  MAXMIX=  30

 Intra band minimization:
   WEIMIN = 0.0010     energy-eigenvalue tresh-hold
   EBREAK =  0.37E-08  absolut break condition
   DEPER  =   0.30     relativ break condition  

   TIME   =   0.40     timestep for ELM

  volume/ion in A,a.u.               =      27.13       183.10
  Fermi-wavevector in a.u.,A,eV,Ry     =   1.128868  2.133251 17.338481  1.274342
  Thomas-Fermi vector in A             =   2.265559
 
 Write flags
   LWAVE  =      F    write WAVECAR
   LCHARG =      F    write CHGCAR
   LVTOT  =      F    write LOCPOT, total local potential
   LVHAR  =      F    write LOCPOT, Hartree potential only
   LELF   =      F    write electronic localiz. function (ELF)
   LORBIT =      0    0 simple, 1 ext, 2 COOP (PROOUT)


 Dipole corrections
   LMONO  =      F    monopole corrections only (constant potential shift)
   LDIPOL =      T    correct potential (dipole corrections)
   IDIPOL =      3    1-x, 2-y, 3-z, 4-all directions 
   EPSILON=  1.0000000 bulk dielectric constant

 LDA+U is selected, type is set to LDAUTYPE =  2
   angular momentum for each species LDAUL =     2    1    1    0
   U (eV)           for each species LDAUU =   4.2  0.0  0.0  0.0
   J (eV)           for each species LDAUJ =   0.0  0.0  0.0  0.0
 Exchange correlation treatment:
   GGA     =    --    GGA type
   LEXCH   =     8    internal setting for exchange type
   VOSKOWN=      1    Vosko Wilk Nusair interpolation
   LHFCALC =     F    Hartree Fock is set to
   LHFONE  =     F    Hartree Fock one center treatment
   AEXX    =    0.0000 exact exchange contribution

 Linear response parameters
   LEPSILON=     F    determine dielectric tensor
   LRPA    =     F    only Hartree local field effects (RPA)
   LNABLA  =     F    use nabla operator in PAW spheres
   LVEL    =     F    velocity operator in full k-point grid
   LINTERFAST=   F  fast interpolation
   KINTER  =     0    interpolate to denser k-point grid
   CSHIFT  =0.1000    complex shift for real part using Kramers Kronig
   OMEGAMAX=  -1.0    maximum frequency
   DEG_THRESHOLD= 0.2000000E-02 threshold for treating states as degnerate
   RTIME   =    0.100 relaxation time in fs

 Orbital magnetization related:
   ORBITALMAG=     F  switch on orbital magnetization
   LCHIMAG   =     F  perturbation theory with respect to B field
   DQ        =  0.001000  dq finite difference perturbation B field



--------------------------------------------------------------------------------------------------------


 conjugate gradient relaxation of ions
   using selective dynamics as specified on POSCAR
 charge density and potential will be updated during run
 spin polarized calculation
 RMM-DIIS sequential band-by-band and
  variant of blocked Davidson during initial phase
 perform sub-space diagonalisation
    before iterative eigenvector-optimisation
 modified Broyden-mixing scheme, WC =      100.0
 initial mixing is a Kerker type mixing with AMIX =  0.0100 and BMIX =      0.0001
 Hartree-type preconditioning will be used
 using additional bands          116
 real space projection scheme for non local part
 use partial core corrections
 calculate Harris-corrections to forces 
   (improved forces if not selfconsistent)
 use gradient corrections 
 use of overlap-Matrix (Vanderbilt PP)
 Gauss-broadening in eV      SIGMA  =   0.10


--------------------------------------------------------------------------------------------------------


  energy-cutoff  :      520.00
  volume of cell :     3391.56
      direct lattice vectors                 reciprocal lattice vectors
    10.231375098  0.000000000  0.000000000     0.097738573  0.056429391  0.000000000
    -5.115687549  8.860630751  0.000000000     0.000000000  0.112858783  0.000000000
     0.000000000  0.000000000 37.411182405     0.000000000  0.000000000  0.026729976

  length of vectors
    10.231375098 10.231375098 37.411182405     0.112858783  0.112858783  0.026729976


 
 k-points in units of 2pi/SCALE and weight: kpoints                                 
   0.00000000  0.00000000  0.00000000       0.111
   0.03257952  0.01880980  0.00000000       0.222
   0.00000000  0.03761959  0.00000000       0.222
   0.03257952  0.05642939  0.00000000       0.222
  -0.03257952  0.01880980  0.00000000       0.222
 
 k-points in reciprocal lattice and weights: kpoints                                 
   0.00000000  0.00000000  0.00000000       0.111
   0.33333333 -0.00000000  0.00000000       0.222
   0.00000000  0.33333333  0.00000000       0.222
   0.33333333  0.33333333  0.00000000       0.222
  -0.33333333  0.33333333  0.00000000       0.222
 
 position of ions in fractional coordinates (direct lattice) 
   0.02683431  0.04434040  0.13881234
   0.02944350  0.04596311  0.24751199
   0.02644339  0.04424422  0.06310318
   0.02959362  0.04506325  0.32356789
   0.36166059  0.21166436  0.26255361
   0.36016885  0.21121859  0.35940578
   0.35983041  0.21098285  0.18498650
   0.35983825  0.21095551  0.07288470
   0.19319910  0.37763732  0.03245500
   0.19325568  0.37764616  0.12400694
   0.19533436  0.37611701  0.31374838
   0.19355341  0.37802780  0.20135327
   0.52623663  0.04403437  0.13881541
   0.52456073  0.04155239  0.24753044
   0.52650558  0.04429840  0.06310574
   0.52477404  0.04386902  0.32356811
   0.85963227  0.21107213  0.26019372
   0.86036735  0.21074977  0.33897908
   0.85992844  0.21100637  0.18410244
   0.85981017  0.21093658  0.07284730
   0.69315919  0.37763066  0.03245081
   0.69308768  0.37767077  0.12400588
   0.69301078  0.37952755  0.31376960
   0.69296611  0.37767156  0.20135252
   0.02648487  0.54458364  0.13878862
   0.02564305  0.54597835  0.24772122
   0.02649827  0.54425046  0.06309121
   0.02680316  0.54579745  0.32376333
   0.35899644  0.70921275  0.26222607
   0.36036427  0.71115478  0.35400191
   0.35988601  0.71104538  0.18488136
   0.35980822  0.71091075  0.07287669
   0.19318292  0.87763486  0.03242460
   0.19319084  0.87762882  0.12400830
   0.19424959  0.87895203  0.31317103
   0.19321642  0.87768559  0.20118913
   0.52650552  0.54427893  0.13893354
   0.52694609  0.54414138  0.24720732
   0.52647807  0.54428107  0.06316736
   0.52609424  0.54304216  0.32285428
   0.85968499  0.71246065  0.26223431
   0.85971595  0.71104157  0.35396287
   0.85986224  0.71094145  0.18488342
   0.85980244  0.71094984  0.07287588
   0.69317562  0.87761327  0.03244900
   0.69311062  0.87749965  0.12400860
   0.69107236  0.87625259  0.31385604
   0.69321942  0.87740900  0.20138563
   0.18187330  0.04407245  0.09986228
   0.37257673  0.04307252  0.28572332
   0.02671333  0.19985149  0.09983569
   0.02177649  0.38280506  0.28753646
   0.37100969  0.38889356  0.09989817
   0.18162057  0.19909631  0.28562265
   0.01240385  0.20981106  0.22354736
   0.19972114  0.20510771  0.03865045
   0.36087604  0.36419356  0.22382877
   0.36568211  0.05671522  0.03864003
   0.20742035  0.05853666  0.22383405
   0.01407977  0.37102058  0.03862071
   0.35463867  0.38098290  0.34730136
   0.04063949  0.37851316  0.16204788
   0.19179568  0.03472080  0.34726428
   0.19263999  0.22427343  0.16218856
   0.04130015  0.21807980  0.34730435
   0.34661560  0.03038771  0.16221186
   0.68188194  0.04407642  0.09984043
   0.86972051  0.04955993  0.28759685
   0.52662058  0.19983017  0.09984096
   0.52872668  0.39094083  0.28573272
   0.87084767  0.38888355  0.09982161
   0.68747360  0.20106656  0.28741432
   0.51365925  0.21003196  0.22419443
   0.69967548  0.20507811  0.03861684
   0.86117354  0.36543025  0.22370484
   0.86570274  0.05672110  0.03861927
   0.70558954  0.05807431  0.22368322
   0.51410879  0.37107544  0.03867612
   0.85249721  0.38411473  0.34705837
   0.54055892  0.37827173  0.16229155
   0.68582188  0.03071795  0.34711017
   0.69240587  0.22432619  0.16207170
   0.53531364  0.21763820  0.34706433
   0.84648904  0.03018215  0.16203909
   0.18194874  0.54413561  0.09982507
   0.37103042  0.54340816  0.28626563
   0.02673528  0.69987816  0.09984552
   0.02714930  0.89058109  0.28621704
   0.37089297  0.88888944  0.09985242
   0.18093399  0.69853587  0.28628448
   0.01258655  0.71101452  0.22387720
   0.19970375  0.70510878  0.03862604
   0.35990030  0.86320031  0.22375490
   0.36572257  0.55670300  0.03865829
   0.20497399  0.55705543  0.22427889
   0.01409506  0.87102086  0.03863727
   0.35209932  0.88282505  0.34776350
   0.04044856  0.87836957  0.16223352
   0.18879777  0.53254176  0.34740685
   0.19242230  0.72413761  0.16220512
   0.03982503  0.71979572  0.34767827
   0.34638965  0.53029785  0.16226758
   0.68186918  0.54422985  0.09990544
   0.87182517  0.54623837  0.28624224
   0.52654894  0.69970465  0.09990454
   0.52493287  0.88744288  0.28620303
   0.87089856  0.88880763  0.09982981
   0.68211373  0.70037315  0.28633252
   0.51214554  0.70985731  0.22384702
   0.69964575  0.70506711  0.03865801
   0.86100211  0.86612373  0.22426518
   0.86566458  0.55672846  0.03864484
   0.70718839  0.55925525  0.22374717
   0.51408367  0.87099747  0.03865617
   0.85438685  0.88347074  0.34739117
   0.54036226  0.87817678  0.16217645
   0.68672941  0.53220995  0.34786874
   0.69256815  0.72443175  0.16228042
   0.53841230  0.71572194  0.34776572
   0.84658002  0.53054329  0.16214374
   0.35484527  0.20773039  0.43039182
   0.44954922  0.21448502  0.41464399
   0.26805934  0.21679836  0.41478710
   0.29996278  0.09936878  0.44440097
   0.40344164  0.30236847  0.44921294
 
 position of ions in cartesian coordinates  (Angst):
   0.04772021  0.39288393  5.19313373
   0.06611456  0.40726216  9.25971620
   0.04421262  0.39203173  2.36076440
   0.07225395  0.39928882 12.10505740
   2.61747646  1.87547975  9.82244081
   2.60449430  1.87152993 13.44579528
   2.60223755  1.86944116  6.92056385
   2.60245759  1.86919890  2.72670262
   0.04481796  3.34610486  1.21417978
   0.04535160  3.34618319  4.63924616
   0.07444204  3.33263394 11.73769799
   0.04644544  3.34956471  7.53286389
   5.15885829  0.39017234  5.19324871
   5.15440861  0.36818035  9.26040632
   5.16025928  0.39251175  2.36086043
   5.14473985  0.38870719 12.10506573
   7.71544108  1.87023221  9.73415462
   7.72461110  1.86737589 12.68160830
   7.71880772  1.86964955  6.88748979
   7.71795473  1.86903115  2.72530358
   5.16013119  3.34604582  1.21402330
   5.15919435  3.34640127  4.63920662
   5.14890883  3.36285348 11.73849189
   5.15794653  3.34640821  7.53283579
  -2.51494307  4.82535455  5.19224644
  -2.53069099  4.83771259  9.26754378
  -2.51310159  4.82240233  2.36031673
  -2.51789600  4.83610965 12.11236913
   0.04491637  6.28407228  9.81018742
   0.04897639  6.30127989 13.24362993
   0.04464275  6.30031059  6.91663020
   0.04453563  6.29911763  2.72640303
  -2.51317878  7.77639847  1.21304281
  -2.51306684  7.77634491  4.63929727
  -2.50900353  7.78806943 11.71609848
  -2.51309556  7.77684791  7.52672323
   2.60251447  4.82265466  5.19766795
   2.60772586  4.82143581  9.24831805
   2.60222271  4.82267355  2.36316561
   2.60463346  4.81169606 12.07836044
   5.15103355  6.31285070  9.81049549
   5.15860989  6.30027678 13.24216935
   5.16061879  6.29938966  6.91670722
   5.15996408  6.29946399  2.72637266
   2.60254451  7.77620714  1.21395538
   2.60246073  7.77520039  4.63930817
   2.58798606  7.76415062 11.74172541
   2.60403768  7.77439713  7.53407460
   1.63535308  0.39050970  3.73596615
   3.59162671  0.38164974 10.68924729
  -0.74906367  1.77081028  3.73497108
  -1.73550762  3.39189427 10.75707883
   1.80648138  3.44584227  3.73730869
   0.83971363  1.76411889 10.68548116
  -0.94641937  1.85905835  8.36317110
   0.99415494  1.81738370  1.44595890
   1.82915768  3.22698469  8.37369908
   3.45129344  0.50253265  1.44556934
   1.82274021  0.51867170  8.37389642
  -1.75396992  3.28747632  1.44484636
   1.67945172  3.37574883 12.99295448
  -1.52055713  3.35386531  6.06240272
   1.78471279  0.30764815 12.99156722
   0.82365916  1.98720407  6.06766582
  -0.69307079  1.93232461 12.99306630
   3.39090022  0.26925426  6.06853744
   6.75110868  0.39054486  3.73514847
   8.64490369  0.43913222 10.75933805
   4.36578400  1.77062138  3.73516854
   3.40966980  3.46398236 10.68959876
   6.92056245  3.44575356  3.73444439
   6.00520660  1.78157653 10.75250943
   4.18098261  1.86101565  8.38737870
   6.10952676  1.81712137  1.44470153
   6.94156256  3.23794253  8.36906247
   8.56716199  0.50258473  1.44479266
   6.92206128  0.51457499  8.36825390
   3.36173391  3.28796246  1.44691934
   6.75720782  3.40349881 12.98386410
   3.59554112  3.35172611  6.07151885
   6.85975743  0.27218045 12.98580198
   5.93668144  1.98767156  6.06329411
   4.36362567  1.92841169 12.98408713
   8.50634440  0.26743291  6.06207410
  -0.92204199  4.82138470  3.73457374
   1.01624508  4.81493905 10.70953552
  -3.30681928  6.20136191  3.73533910
  -4.27815997  7.89111022 10.70771775
  -0.75253559  7.87612111  3.73559692
  -1.72228772  6.18946837 10.71024091
  -3.50855041  6.30003710  8.37551059
  -1.56387228  6.24770854  1.44504581
  -0.73358810  7.64849921  8.37093526
   0.89392622  4.93273974  1.44625246
  -0.75255582  4.93586251  8.39053835
  -4.31165874  7.71779422  1.44546591
  -0.91379690  7.82238679 13.01024387
  -4.07961982  7.78290840  6.06934770
  -0.79265646  4.71865587 12.99690115
  -1.73571699  6.41631599  6.06828542
  -3.27478520  6.37784410 13.00705525
   0.83120430  4.69877341  6.07062198
   4.19234947  4.82221973  3.73758055
   6.12558550  4.84001648 10.70866051
   1.80784934  6.19982451  3.73754705
   0.83090457  7.86330368 10.70719378
   4.36362771  7.87539626  3.73475111
   3.39607125  6.20574789 10.71203817
   1.60854496  6.28978350  8.37438171
   3.55143502  6.24733933  1.44624181
   4.37841721  7.67440253  8.39002555
   6.00889011  4.93296534  1.44574917
   4.37453450  4.95535428  8.37064609
   0.80403189  7.71758698  1.44617312
   4.22199203  7.82810805 12.99631437
   1.03617090  7.78120018  6.06721275
   4.30356635  4.71571587 13.01418106
   3.37995805  6.41892221  6.07110238
   1.84728840  6.34174782 13.01032688
   5.94758404  4.70094818  6.06598917
   2.56787134  1.84062227 16.10146695
   3.50226837  1.90047260 15.51232198
   1.63354295  1.92097020 15.51767584
   2.56069210  0.88047011 16.62556576
   2.58094020  2.67917532 16.80558714
 


--------------------------------------------------------------------------------------------------------


 k-point  1 :   0.0000 0.0000 0.0000  plane waves:   91045
 k-point  2 :   0.3333-0.0000 0.0000  plane waves:   91327
 k-point  3 :   0.0000 0.3333 0.0000  plane waves:   91327
 k-point  4 :   0.3333 0.3333 0.0000  plane waves:   91329
 k-point  5 :  -0.3333 0.3333 0.0000  plane waves:   91327

 maximum and minimum number of plane-waves per node :     91329    91045

 maximum number of plane-waves:     91329
 maximum index in each direction: 
   IXMAX=   19   IYMAX=   19   IZMAX=   69
   IXMIN=  -19   IYMIN=  -19   IZMIN=  -69

 WARNING: aliasing errors must be expected set NGX to  78 to avoid them
 WARNING: aliasing errors must be expected set NGY to  78 to avoid them
 WARNING: aliasing errors must be expected set NGZ to 278 to avoid them
 aliasing errors are usually negligible using standard VASP settings
 and one can safely disregard these warnings

 serial   3D FFT for wavefunctions
 parallel 3D FFT for charge:
    minimum data exchange during FFTs selected (reduces bandwidth)


 total amount of memory used by VASP on root node   576375. kBytes
========================================================================

   base      :      30000. kBytes
   nonlr-proj:      30101. kBytes
   fftplans  :      11616. kBytes
   grid      :      84883. kBytes
   one-center:       3888. kBytes
   wavefun   :     415887. kBytes
 
     INWAV:  cpu time    0.00: real time    0.00
 Broyden mixing: mesh for mixing (old mesh)
   NGX = 39   NGY = 39   NGZ =139
  (NGX  =120   NGY  =120   NGZ  =420)
  gives a total of 211419 points

 initial charge density was supplied:
 charge density of overlapping atoms calculated
 number of electron    1112.0000000 magnetization       0.0000000
 keeping initial charge density in first step


--------------------------------------------------------------------------------------------------------


 Maximum index for non-local projection operator         2515
 Maximum index for augmentation-charges          374 (set IRDMAX)


--------------------------------------------------------------------------------------------------------


 First call to EWALD:  gamma=   0.118
 Maximum number of real-space cells 4x 4x 1
 Maximum number of reciprocal cells 2x 2x 6

 FEWALD executed in parallel
    FEWALD:  cpu time    0.05: real time    0.05


----------------------------------------- Iteration    1(   1)  ---------------------------------------


    POTLOK:  cpu time    0.59: real time    0.59
    SETDIJ:  cpu time    0.97: real time    0.97
     EDDAV:  cpu time   34.53: real time   34.55
       DOS:  cpu time    0.08: real time    0.09
    --------------------------------------------
      LOOP:  cpu time   36.17: real time   36.23

 eigenvalue-minimisations  : 15312
 total energy-change (2. order) : 0.1378392E+05  (-0.6286818E+05)
 number of electron    1112.0000000 magnetization       0.0000000
 augmentation part     1112.0000000 magnetization       0.0000000

 DIPCOR: dipole corrections for dipol
 direction  3 min pos   316,
 dipolmoment           0.000000      0.000000      0.000838 electrons x Angstroem
 Tr[quadrupol]    -19418.453574

 energy correction for charged system         0.000000 eV
 dipol+quadrupol energy correction           -0.000000 eV
 added-field ion interaction          0.102816 eV  (added to PSCEN)


 Free energy of the ion-electron system (eV)
  ---------------------------------------------------
  alpha Z        PSCENC =      1965.78520297
  Ewald energy   TEWEN  =   1441158.15769327
  -Hartree energ DENC   =  -1572675.23300584
  -exchange      EXHF   =         0.00000000
  -V(xc)+E(xc)   XCENC  =      5459.96887026
  PAW double counting   =    121055.99823787  -125065.16812732
  entropy T*S    EENTRO =        -0.13665894
  eigenvalues    EBANDS =     -7398.37638226
  atomic energy  EATOM  =    149282.92348897
  ---------------------------------------------------
  free energy    TOTEN  =     13783.91931897 eV

  energy without entropy =    13784.05597791  energy(sigma->0) =    13783.98764844


--------------------------------------------------------------------------------------------------------




----------------------------------------- Iteration    1(   2)  ---------------------------------------


     EDDAV:  cpu time   33.29: real time   33.32
       DOS:  cpu time    0.02: real time    0.02
    --------------------------------------------
      LOOP:  cpu time   33.32: real time   33.36

 eigenvalue-minimisations  : 14568
 total energy-change (2. order) :-0.1252681E+05  (-0.1170055E+05)
 number of electron    1112.0000000 magnetization       0.0000000
 augmentation part     1112.0000000 magnetization       0.0000000

 DIPCOR: dipole corrections for dipol
 direction  3 min pos   316,
 dipolmoment           0.000000      0.000000      0.000838 electrons x Angstroem
 Tr[quadrupol]    -19418.453574

 energy correction for charged system         0.000000 eV
 dipol+quadrupol energy correction           -0.000000 eV
 added-field ion interaction          0.102816 eV  (added to PSCEN)


 Free energy of the ion-electron system (eV)
  ---------------------------------------------------
  alpha Z        PSCENC =      1965.78520297
  Ewald energy   TEWEN  =   1441158.15769327
  -Hartree energ DENC   =  -1572675.23300584
  -exchange      EXHF   =         0.00000000
  -V(xc)+E(xc)   XCENC  =      5459.96887026
  PAW double counting   =    121055.99823787  -125065.16812732
  entropy T*S    EENTRO =        -0.30165113
  eigenvalues    EBANDS =    -19925.02080589
  atomic energy  EATOM  =    149282.92348897
  ---------------------------------------------------
  free energy    TOTEN  =      1257.10990316 eV

  energy without entropy =     1257.41155429  energy(sigma->0) =     1257.26072872


--------------------------------------------------------------------------------------------------------




----------------------------------------- Iteration    1(   3)  ---------------------------------------


     EDDAV:  cpu time   37.03: real time   37.05
       DOS:  cpu time    0.02: real time    0.02
    --------------------------------------------
      LOOP:  cpu time   37.05: real time   37.09

 eigenvalue-minimisations  : 16704
 total energy-change (2. order) :-0.2183552E+04  (-0.2121053E+04)
 number of electron    1112.0000000 magnetization       0.0000000
 augmentation part     1112.0000000 magnetization       0.0000000

 DIPCOR: dipole corrections for dipol
 direction  3 min pos   316,
 dipolmoment           0.000000      0.000000      0.000838 electrons x Angstroem
 Tr[quadrupol]    -19418.453574

 energy correction for charged system         0.000000 eV
 dipol+quadrupol energy correction           -0.000000 eV
 added-field ion interaction          0.102816 eV  (added to PSCEN)


 Free energy of the ion-electron system (eV)
  ---------------------------------------------------
  alpha Z        PSCENC =      1965.78520297
  Ewald energy   TEWEN  =   1441158.15769327
  -Hartree energ DENC   =  -1572675.23300584
  -exchange      EXHF   =         0.00000000
  -V(xc)+E(xc)   XCENC  =      5459.96887026
  PAW double counting   =    121055.99823787  -125065.16812732
  entropy T*S    EENTRO =        -0.00000000
  eigenvalues    EBANDS =    -22108.87442751
  atomic energy  EATOM  =    149282.92348897
  ---------------------------------------------------
  free energy    TOTEN  =      -926.44206733 eV

  energy without entropy =     -926.44206733  energy(sigma->0) =     -926.44206733


--------------------------------------------------------------------------------------------------------




----------------------------------------- Iteration    1(   4)  ---------------------------------------


     EDDAV:  cpu time   35.12: real time   35.14
       DOS:  cpu time    0.02: real time    0.02
    --------------------------------------------
      LOOP:  cpu time   35.14: real time   35.23

 eigenvalue-minimisations  : 15696
 total energy-change (2. order) :-0.1376475E+03  (-0.1368650E+03)
 number of electron    1112.0000000 magnetization       0.0000000
 augmentation part     1112.0000000 magnetization       0.0000000

 DIPCOR: dipole corrections for dipol
 direction  3 min pos   316,
 dipolmoment           0.000000      0.000000      0.000838 electrons x Angstroem
 Tr[quadrupol]    -19418.453574

 energy correction for charged system         0.000000 eV
 dipol+quadrupol energy correction           -0.000000 eV
 added-field ion interaction          0.102816 eV  (added to PSCEN)


 Free energy of the ion-electron system (eV)
  ---------------------------------------------------
  alpha Z        PSCENC =      1965.78520297
  Ewald energy   TEWEN  =   1441158.15769327
  -Hartree energ DENC   =  -1572675.23300584
  -exchange      EXHF   =         0.00000000
  -V(xc)+E(xc)   XCENC  =      5459.96887026
  PAW double counting   =    121055.99823787  -125065.16812732
  entropy T*S    EENTRO =        -0.00000000
  eigenvalues    EBANDS =    -22246.52197512
  atomic energy  EATOM  =    149282.92348897
  ---------------------------------------------------
  free energy    TOTEN  =     -1064.08961494 eV

  energy without entropy =    -1064.08961494  energy(sigma->0) =    -1064.08961494


--------------------------------------------------------------------------------------------------------




----------------------------------------- Iteration    1(   5)  ---------------------------------------


     EDDAV:  cpu time   38.91: real time   38.93
       DOS:  cpu time    0.01: real time    0.01
    CHARGE:  cpu time    1.61: real time    1.61
    MIXING:  cpu time    0.01: real time    0.01
    --------------------------------------------
      LOOP:  cpu time   40.55: real time   40.58

 eigenvalue-minimisations  : 17712
 total energy-change (2. order) :-0.3563201E+01  (-0.3554007E+01)
 number of electron    1112.0000582 magnetization      -0.0000236
 augmentation part      431.4576683 magnetization      -1.0079031

 DIPCOR: dipole corrections for dipol
 direction  3 min pos   316,
 dipolmoment           0.000000      0.000000      0.000838 electrons x Angstroem
 Tr[quadrupol]    -19418.453574

 energy correction for charged system         0.000000 eV
 dipol+quadrupol energy correction           -0.000000 eV
 added-field ion interaction          0.102816 eV  (added to PSCEN)


 Broyden mixing:
  rms(total) = 0.16604E+02    rms(broyden)= 0.16603E+02
  rms(prec ) = 0.16812E+02
  weight for this iteration     100.00

 Free energy of the ion-electron system (eV)
  ---------------------------------------------------
  alpha Z        PSCENC =      1965.78520297
  Ewald energy   TEWEN  =   1441158.15769327
  -Hartree energ DENC   =  -1572675.23300584
  -exchange      EXHF   =         0.00000000
  -V(xc)+E(xc)   XCENC  =      5459.96887026
  PAW double counting   =    121055.99823787  -125065.16812732
  entropy T*S    EENTRO =        -0.00000000
  eigenvalues    EBANDS =    -22250.08517562
  atomic energy  EATOM  =    149282.92348897
  ---------------------------------------------------
  free energy    TOTEN  =     -1067.65281545 eV

  energy without entropy =    -1067.65281545  energy(sigma->0) =    -1067.65281545


--------------------------------------------------------------------------------------------------------




----------------------------------------- Iteration    1(   6)  ---------------------------------------


    POTLOK:  cpu time    0.54: real time    0.54
    SETDIJ:  cpu time    0.94: real time    0.94
    EDDIAG:  cpu time    6.26: real time    6.26
  RMM-DIIS:  cpu time   15.06: real time   15.07
    ORTHCH:  cpu time    2.02: real time    2.02
       DOS:  cpu time    0.07: real time    0.08
    CHARGE:  cpu time    1.60: real time    1.60
    MIXING:  cpu time    0.01: real time    0.01
    --------------------------------------------
      LOOP:  cpu time   26.51: real time   26.55

 eigenvalue-minimisations  : 14252
 total energy-change (2. order) :-0.7507764E+02  (-0.3748766E+01)
 number of electron    1112.0000586 magnetization      -0.0000302
 augmentation part      433.0814854 magnetization      -0.9576785

 DIPCOR: dipole corrections for dipol
 direction  3 min pos   305,
 dipolmoment           0.000000      0.000000      0.007130 electrons x Angstroem
 Tr[quadrupol]    -19418.710049

 energy correction for charged system         0.000000 eV
 dipol+quadrupol energy correction           -0.000001 eV
 added-field ion interaction          0.460720 eV  (added to PSCEN)


 Broyden mixing:
  rms(total) = 0.15951E+02    rms(broyden)= 0.15951E+02
  rms(prec ) = 0.16160E+02
  weight for this iteration     100.00

 eigenvalues of (default mixing * dielectric matrix)
  average eigenvalue GAMMA=   1.5686
  1.5686

 Free energy of the ion-electron system (eV)
  ---------------------------------------------------
  alpha Z        PSCENC =      1966.14310606
  Ewald energy   TEWEN  =   1441158.15769327
  -Hartree energ DENC   =  -1572628.64922277
  -exchange      EXHF   =         0.00000000
  -V(xc)+E(xc)   XCENC  =      5486.67979518
  PAW double counting   =    121091.16654413  -124974.62508311
  entropy T*S    EENTRO =        -0.00000000
  eigenvalues    EBANDS =    -22524.52677868
  atomic energy  EATOM  =    149282.92348897
  ---------------------------------------------------
  free energy    TOTEN  =     -1142.73045695 eV

  energy without entropy =    -1142.73045695  energy(sigma->0) =    -1142.73045695


--------------------------------------------------------------------------------------------------------




----------------------------------------- Iteration    1(   7)  ---------------------------------------


    POTLOK:  cpu time    0.54: real time    0.54
    SETDIJ:  cpu time    0.93: real time    0.93
    EDDIAG:  cpu time    6.24: real time    6.24
  RMM-DIIS:  cpu time   16.98: real time   16.99
    ORTHCH:  cpu time    2.02: real time    2.02
       DOS:  cpu time    0.05: real time    0.05
    CHARGE:  cpu time    1.61: real time    1.61
    MIXING:  cpu time    0.01: real time    0.01
    --------------------------------------------
      LOOP:  cpu time   28.39: real time   28.43

 eigenvalue-minimisations  : 15800
 total energy-change (2. order) : 0.1727328E+02  (-0.1406250E+01)
 number of electron    1112.0000584 magnetization      -0.0000194
 augmentation part      434.0362906 magnetization      -0.8970452

 DIPCOR: dipole corrections for dipol
 direction  3 min pos   299,
 dipolmoment           0.000000      0.000000      0.014170 electrons x Angstroem
 Tr[quadrupol]    -19418.940494

 energy correction for charged system         0.000000 eV
 dipol+quadrupol energy correction           -0.000005 eV
 added-field ion interaction          0.466277 eV  (added to PSCEN)


 Broyden mixing:
  rms(total) = 0.15784E+02    rms(broyden)= 0.15784E+02
  rms(prec ) = 0.15983E+02
  weight for this iteration     100.00

 eigenvalues of (default mixing * dielectric matrix)
  average eigenvalue GAMMA=   1.5965
  1.3717  1.8212

 Free energy of the ion-electron system (eV)
  ---------------------------------------------------
  alpha Z        PSCENC =      1966.14865893
  Ewald energy   TEWEN  =   1441158.15769327
  -Hartree energ DENC   =  -1572572.82104842
  -exchange      EXHF   =         0.00000000
  -V(xc)+E(xc)   XCENC  =      5500.18469544
  PAW double counting   =    121128.18561912  -124949.59224391
  entropy T*S    EENTRO =        -0.00000000
  eigenvalues    EBANDS =    -22638.64404312
  atomic energy  EATOM  =    149282.92348897
  ---------------------------------------------------
  free energy    TOTEN  =     -1125.45717972 eV

  energy without entropy =    -1125.45717972  energy(sigma->0) =    -1125.45717972


--------------------------------------------------------------------------------------------------------




----------------------------------------- Iteration    1(   8)  ---------------------------------------


    POTLOK:  cpu time    0.54: real time    0.54
    SETDIJ:  cpu time    0.94: real time    0.94
    EDDIAG:  cpu time    6.23: real time    6.23
  RMM-DIIS:  cpu time   17.17: real time   17.18
    ORTHCH:  cpu time    2.02: real time    2.03
       DOS:  cpu time    0.05: real time    0.05
    CHARGE:  cpu time    1.60: real time    1.60
    MIXING:  cpu time    0.01: real time    0.01
    --------------------------------------------
      LOOP:  cpu time   28.57: real time   28.60

 eigenvalue-minimisations  : 16126
 total energy-change (2. order) : 0.1744669E+03  (-0.2167925E+02)
 number of electron    1112.0000546 magnetization      -0.0000275
 augmentation part      437.6276104 magnetization      -0.6569708

 DIPCOR: dipole corrections for dipol
 direction  3 min pos   296,
 dipolmoment           0.000000      0.000000      0.066584 electrons x Angstroem
 Tr[quadrupol]    -19420.658526

 energy correction for charged system         0.000000 eV
 dipol+quadrupol energy correction           -0.000118 eV
 added-field ion interaction          1.135388 eV  (added to PSCEN)


 Broyden mixing:
  rms(total) = 0.14663E+02    rms(broyden)= 0.14663E+02
  rms(prec ) = 0.14769E+02
  weight for this iteration     100.00

 eigenvalues of (default mixing * dielectric matrix)
  average eigenvalue GAMMA=   2.5789
  5.1452  1.2958  1.2958

 Free energy of the ion-electron system (eV)
  ---------------------------------------------------
  alpha Z        PSCENC =      1966.81765682
  Ewald energy   TEWEN  =   1441158.15769327
  -Hartree energ DENC   =  -1572165.99917157
  -exchange      EXHF   =         0.00000000
  -V(xc)+E(xc)   XCENC  =      5491.58501270
  PAW double counting   =    122268.65553275  -126150.19381373
  entropy T*S    EENTRO =        -0.00000000
  eigenvalues    EBANDS =    -22802.93672086
  atomic energy  EATOM  =    149282.92348897
  ---------------------------------------------------
  free energy    TOTEN  =      -950.99032166 eV

  energy without entropy =     -950.99032166  energy(sigma->0) =     -950.99032166


--------------------------------------------------------------------------------------------------------




----------------------------------------- Iteration    1(   9)  ---------------------------------------


    POTLOK:  cpu time    0.54: real time    0.54
    SETDIJ:  cpu time    0.93: real time    0.94
    EDDIAG:  cpu time    6.24: real time    6.25
  RMM-DIIS:  cpu time   17.16: real time   17.17
    ORTHCH:  cpu time    2.03: real time    2.03
       DOS:  cpu time    0.04: real time    0.04
    CHARGE:  cpu time    1.60: real time    1.61
    MIXING:  cpu time    0.01: real time    0.01
    --------------------------------------------
      LOOP:  cpu time   28.57: real time   28.60

 eigenvalue-minimisations  : 16109
 total energy-change (2. order) : 0.8718240E+02  (-0.1958059E+02)
 number of electron    1112.0000505 magnetization      -0.0000281
 augmentation part      441.6989644 magnetization      -0.7072883

 DIPCOR: dipole corrections for dipol
 direction  3 min pos   295,
 dipolmoment           0.000000      0.000000      0.114851 electrons x Angstroem
 Tr[quadrupol]    -19422.542431

 energy correction for charged system         0.000000 eV
 dipol+quadrupol energy correction           -0.000352 eV
 added-field ion interaction          1.351493 eV  (added to PSCEN)


 Broyden mixing:
  rms(total) = 0.14107E+02    rms(broyden)= 0.14106E+02
  rms(prec ) = 0.14144E+02
  weight for this iteration     100.00

 eigenvalues of (default mixing * dielectric matrix)
  average eigenvalue GAMMA=   4.0800
 12.9034  1.3640  1.3286  0.7240

 Free energy of the ion-electron system (eV)
  ---------------------------------------------------
  alpha Z        PSCENC =      1967.03352884
  Ewald energy   TEWEN  =   1441158.15769327
  -Hartree energ DENC   =  -1571821.74118365
  -exchange      EXHF   =         0.00000000
  -V(xc)+E(xc)   XCENC  =      5497.91986447
  PAW double counting   =    123375.99699218  -127202.04150709
  entropy T*S    EENTRO =        -0.00000000
  eigenvalues    EBANDS =    -23122.05680003
  atomic energy  EATOM  =    149282.92348897
  ---------------------------------------------------
  free energy    TOTEN  =      -863.80792304 eV

  energy without entropy =     -863.80792304  energy(sigma->0) =     -863.80792304


--------------------------------------------------------------------------------------------------------




----------------------------------------- Iteration    1(  10)  ---------------------------------------


    POTLOK:  cpu time    0.54: real time    0.54
    SETDIJ:  cpu time    0.93: real time    0.93
    EDDIAG:  cpu time    6.24: real time    6.25
  RMM-DIIS:  cpu time   19.37: real time   19.38
    ORTHCH:  cpu time    2.01: real time    2.01
       DOS:  cpu time    0.06: real time    0.06
    CHARGE:  cpu time    1.60: real time    1.60
    MIXING:  cpu time    0.02: real time    0.01
    --------------------------------------------
      LOOP:  cpu time   30.77: real time   30.80

 eigenvalue-minimisations  : 17761
 total energy-change (2. order) : 0.3592633E+01  (-0.1552762E+01)
 number of electron    1112.0000497 magnetization      -0.0000285
 augmentation part      441.9159438 magnetization      -0.7940957

 DIPCOR: dipole corrections for dipol
 direction  3 min pos   297,
 dipolmoment           0.000000      0.000000      0.111814 electrons x Angstroem
 Tr[quadrupol]    -19423.178908

 energy correction for charged system         0.000000 eV
 dipol+quadrupol energy correction           -0.000334 eV
 added-field ion interaction          2.497560 eV  (added to PSCEN)


 Broyden mixing:
  rms(total) = 0.13717E+02    rms(broyden)= 0.13717E+02
  rms(prec ) = 0.13749E+02
  weight for this iteration     100.00

 eigenvalues of (default mixing * dielectric matrix)
  average eigenvalue GAMMA=   5.1402
 19.9181  2.0534  1.5243  0.9606  1.2444

 Free energy of the ion-electron system (eV)
  ---------------------------------------------------
  alpha Z        PSCENC =      1968.17961386
  Ewald energy   TEWEN  =   1441158.15769327
  -Hartree energ DENC   =  -1571820.88285997
  -exchange      EXHF   =         0.00000000
  -V(xc)+E(xc)   XCENC  =      5492.01463044
  PAW double counting   =    123665.12391107  -127502.18208524
  entropy T*S    EENTRO =        -0.00000000
  eigenvalues    EBANDS =    -23103.54968277
  atomic energy  EATOM  =    149282.92348897
  ---------------------------------------------------
  free energy    TOTEN  =      -860.21529038 eV

  energy without entropy =     -860.21529038  energy(sigma->0) =     -860.21529038


--------------------------------------------------------------------------------------------------------




----------------------------------------- Iteration    1(  11)  ---------------------------------------


    POTLOK:  cpu time    0.54: real time    0.54
    SETDIJ:  cpu time    0.94: real time    0.94
    EDDIAG:  cpu time    6.24: real time    6.25
  RMM-DIIS:  cpu time   16.75: real time   16.76
    ORTHCH:  cpu time    2.01: real time    2.01
       DOS:  cpu time    0.07: real time    0.07
    CHARGE:  cpu time    1.60: real time    1.60
    MIXING:  cpu time    0.01: real time    0.02
    --------------------------------------------
      LOOP:  cpu time   28.17: real time   28.20

 eigenvalue-minimisations  : 15748
 total energy-change (2. order) :-0.1938022E+02  (-0.4450120E+02)
 number of electron    1112.0000528 magnetization      -0.0000308
 augmentation part      438.2684545 magnetization      -0.9660034

 DIPCOR: dipole corrections for dipol
 direction  3 min pos   295,
 dipolmoment           0.000000      0.000000      0.019715 electrons x Angstroem
 Tr[quadrupol]    -19425.941241

 energy correction for charged system         0.000000 eV
 dipol+quadrupol energy correction           -0.000010 eV
 added-field ion interaction          0.231995 eV  (added to PSCEN)


 Broyden mixing:
  rms(total) = 0.13061E+02    rms(broyden)= 0.13061E+02
  rms(prec ) = 0.13152E+02
  weight for this iteration     100.00

 eigenvalues of (default mixing * dielectric matrix)
  average eigenvalue GAMMA=   4.6658
 20.0687  3.2170  1.4041  1.2167  1.0441  1.0441

 Free energy of the ion-electron system (eV)
  ---------------------------------------------------
  alpha Z        PSCENC =      1965.91437160
  Ewald energy   TEWEN  =   1441158.15769327
  -Hartree energ DENC   =  -1572232.88842355
  -exchange      EXHF   =         0.00000000
  -V(xc)+E(xc)   XCENC  =      5492.40564225
  PAW double counting   =    125405.41094382  -129339.92490529
  entropy T*S    EENTRO =        -0.00000000
  eigenvalues    EBANDS =    -22611.59432055
  atomic energy  EATOM  =    149282.92348897
  ---------------------------------------------------
  free energy    TOTEN  =      -879.59550947 eV

  energy without entropy =     -879.59550947  energy(sigma->0) =     -879.59550947


--------------------------------------------------------------------------------------------------------




----------------------------------------- Iteration    1(  12)  ---------------------------------------


    POTLOK:  cpu time    0.54: real time    0.54
    SETDIJ:  cpu time    0.91: real time    0.91
    EDDIAG:  cpu time    6.24: real time    6.24
  RMM-DIIS:  cpu time   17.38: real time   17.39
    ORTHCH:  cpu time    2.02: real time    2.02
       DOS:  cpu time    0.06: real time    0.06
    CHARGE:  cpu time    1.60: real time    1.60
    MIXING:  cpu time    0.02: real time    0.02
    --------------------------------------------
      LOOP:  cpu time   28.76: real time   28.82

 eigenvalue-minimisations  : 16277
 total energy-change (2. order) : 0.1794681E+03  (-0.4007490E+02)
 number of electron    1112.0000451 magnetization      -0.0000265
 augmentation part      449.1451280 magnetization      -1.4638560

 DIPCOR: dipole corrections for dipol
 direction  3 min pos   294,
 dipolmoment           0.000000      0.000000     -0.039089 electrons x Angstroem
 Tr[quadrupol]    -19439.587700

 energy correction for charged system         0.000000 eV
 dipol+quadrupol energy correction           -0.000041 eV
 added-field ion interaction         -0.253399 eV  (added to PSCEN)


 Broyden mixing:
  rms(total) = 0.79120E+01    rms(broyden)= 0.79116E+01
  rms(prec ) = 0.79135E+01
  weight for this iteration     100.00

 eigenvalues of (default mixing * dielectric matrix)
  average eigenvalue GAMMA=   7.2543
 22.4021 22.4021  1.5586  1.5586  1.1374  0.9627  0.7585

 Free energy of the ion-electron system (eV)
  ---------------------------------------------------
  alpha Z        PSCENC =      1965.42894797
  Ewald energy   TEWEN  =   1441158.15769327
  -Hartree energ DENC   =  -1571917.53561354
  -exchange      EXHF   =         0.00000000
  -V(xc)+E(xc)   XCENC  =      5554.02096624
  PAW double counting   =    135049.71956201  -139093.36396276
  entropy T*S    EENTRO =        -0.00000000
  eigenvalues    EBANDS =    -22699.47852897
  atomic energy  EATOM  =    149282.92348897
  ---------------------------------------------------
  free energy    TOTEN  =      -700.12744680 eV

  energy without entropy =     -700.12744680  energy(sigma->0) =     -700.12744680


--------------------------------------------------------------------------------------------------------




----------------------------------------- Iteration    1(  13)  ---------------------------------------


    POTLOK:  cpu time    0.54: real time    0.54
    SETDIJ:  cpu time    0.90: real time    0.90
    EDDIAG:  cpu time    6.23: real time    6.23
  RMM-DIIS:  cpu time   19.13: real time   19.15
[...]
   0.252E+02 -.558E+02 -.646E+03   -.249E+02 0.563E+02 0.645E+03   -.352E+00 -.573E+00 0.101E+01   0.503E-01 0.229E-01 0.946E-01
   -.441E+01 -.100E+03 0.362E+04   0.512E+01 0.110E+03 -.363E+04   -.814E+00 -.106E+02 0.105E+02   0.938E-01 0.735E+00 -.841E+00
   0.344E+02 0.500E+02 -.646E+03   -.350E+02 -.501E+02 0.645E+03   0.632E+00 -.161E-01 0.970E+00   -.560E-01 0.374E-01 0.930E-01
   0.893E+02 0.461E+02 0.362E+04   -.982E+02 -.504E+02 -.363E+04   0.958E+01 0.457E+01 0.105E+02   -.686E+00 -.280E+00 -.836E+00
   0.685E+02 -.397E+02 -.367E+04   -.759E+02 0.439E+02 0.368E+04   0.782E+01 -.428E+01 -.163E+02   -.396E+00 0.130E+00 0.105E+01
   0.520E+02 0.256E+00 0.709E+03   -.518E+02 -.158E+00 -.709E+03   -.220E+00 -.137E+00 -.264E+00   0.873E-02 0.333E-01 0.227E-01
   -.927E+01 0.857E+02 -.367E+04   0.913E+01 -.941E+02 0.369E+04   0.217E-01 0.889E+01 -.164E+02   0.113E+00 -.412E+00 0.107E+01
   -.205E+02 0.445E+02 0.712E+03   0.199E+02 -.443E+02 -.712E+03   0.599E+00 -.179E+00 -.415E+00   -.750E-01 -.509E-02 0.834E-02
   -.108E+03 -.472E+02 -.351E+04   0.116E+03 0.516E+02 0.352E+04   -.846E+01 -.459E+01 -.792E+01   0.687E+00 0.272E+00 0.751E+00
   -.281E+02 -.396E+02 0.713E+03   0.282E+02 0.390E+02 -.712E+03   -.114E+00 0.625E+00 -.415E+00   0.508E-01 -.550E-01 0.296E-02
   -.610E+02 -.298E+02 0.208E+04   0.621E+02 0.313E+02 -.208E+04   -.123E+01 -.163E+01 -.781E+00   0.621E-01 0.149E+00 -.132E+00
   0.652E+02 0.277E+02 -.203E+04   -.665E+02 -.293E+02 0.203E+04   0.134E+01 0.177E+01 0.795E+00   -.631E-01 -.159E+00 0.290E+00
   0.567E+02 -.383E+02 0.208E+04   -.587E+02 0.386E+02 -.208E+04   0.208E+01 -.266E+00 -.670E+00   -.163E+00 -.189E-01 -.133E+00
   -.543E+02 0.444E+02 -.203E+04   0.561E+02 -.450E+02 0.203E+04   -.214E+01 0.510E+00 0.528E+00   0.324E+00 0.148E-01 0.301E+00
   0.453E+01 0.681E+02 0.208E+04   -.381E+01 -.699E+02 -.208E+04   -.824E+00 0.194E+01 -.691E+00   0.954E-01 -.132E+00 -.131E+00
   -.699E+01 -.679E+02 -.204E+04   0.644E+01 0.698E+02 0.204E+04   0.725E+00 -.222E+01 0.289E+00   -.158E+00 0.280E+00 0.302E+00
   -.507E+02 -.291E+00 -.660E+03   0.503E+02 0.179E+00 0.660E+03   0.381E+00 0.107E+00 0.228E+00   0.319E-01 0.779E-02 0.126E+00
   -.850E+02 0.539E+02 0.362E+04   0.932E+02 -.594E+02 -.363E+04   -.877E+01 0.599E+01 0.105E+02   0.592E+00 -.452E+00 -.837E+00
   0.260E+02 -.422E+02 -.658E+03   -.257E+02 0.418E+02 0.657E+03   -.235E+00 0.311E+00 0.128E+00   -.261E-01 0.283E-01 0.127E+00
   -.474E+01 -.100E+03 0.362E+04   0.547E+01 0.110E+03 -.363E+04   -.840E+00 -.106E+02 0.105E+02   0.979E-01 0.739E+00 -.837E+00
   0.290E+02 0.442E+02 -.668E+03   -.292E+02 -.440E+02 0.668E+03   0.270E+00 -.306E+00 0.410E+00   -.577E-01 0.524E-01 0.924E-01
   0.892E+02 0.466E+02 0.362E+04   -.980E+02 -.509E+02 -.363E+04   0.958E+01 0.460E+01 0.105E+02   -.689E+00 -.292E+00 -.835E+00
   0.780E+02 -.367E+02 -.358E+04   -.862E+02 0.419E+02 0.359E+04   0.900E+01 -.564E+01 -.106E+02   -.850E+00 0.473E+00 0.791E+00
   0.528E+02 -.265E+00 0.709E+03   -.526E+02 0.361E+00 -.709E+03   -.220E+00 -.146E+00 -.312E+00   0.181E-01 0.461E-01 0.377E-01
   0.126E+02 0.102E+03 -.358E+04   -.133E+02 -.112E+03 0.359E+04   0.851E+00 0.110E+02 -.100E+02   -.140E+00 -.788E+00 0.875E+00
   -.260E+02 0.462E+02 0.710E+03   0.258E+02 -.460E+02 -.709E+03   0.220E+00 -.117E+00 -.341E+00   -.409E-01 -.256E-02 0.441E-01
   -.883E+02 -.421E+02 -.358E+04   0.969E+02 0.467E+02 0.359E+04   -.953E+01 -.509E+01 -.104E+02   0.854E+00 0.481E+00 0.797E+00
   -.260E+02 -.449E+02 0.710E+03   0.260E+02 0.446E+02 -.709E+03   -.291E-01 0.295E+00 -.225E+00   0.250E-01 -.345E-01 0.244E-01
   -.607E+02 -.304E+02 0.208E+04   0.619E+02 0.320E+02 -.208E+04   -.124E+01 -.171E+01 -.758E+00   0.679E-01 0.146E+00 -.133E+00
   0.627E+02 0.249E+02 -.204E+04   -.640E+02 -.269E+02 0.204E+04   0.135E+01 0.199E+01 0.107E+00   -.477E-01 -.677E-01 0.207E+00
   0.567E+02 -.375E+02 0.208E+04   -.587E+02 0.377E+02 -.208E+04   0.209E+01 -.214E+00 -.760E+00   -.153E+00 -.196E-01 -.132E+00
   -.558E+02 0.426E+02 -.204E+04   0.580E+02 -.426E+02 0.203E+04   -.222E+01 -.215E-01 0.168E+00   0.541E-01 -.391E-02 0.199E+00
   0.456E+01 0.677E+02 0.208E+04   -.385E+01 -.695E+02 -.208E+04   -.801E+00 0.187E+01 -.792E+00   0.951E-01 -.138E+00 -.128E+00
   -.326E+01 -.718E+02 -.204E+04   0.230E+01 0.736E+02 0.203E+04   0.106E+01 -.192E+01 0.637E+00   -.903E-01 0.105E+00 0.304E+00
   -.511E+02 0.121E+01 -.660E+03   0.508E+02 -.136E+01 0.660E+03   0.281E+00 0.200E+00 0.204E+00   -.304E-01 -.442E-01 0.640E-01
   -.846E+02 0.544E+02 0.362E+04   0.928E+02 -.599E+02 -.363E+04   -.874E+01 0.601E+01 0.105E+02   0.590E+00 -.456E+00 -.832E+00
   0.244E+02 -.463E+02 -.668E+03   -.241E+02 0.464E+02 0.668E+03   -.385E+00 -.589E-01 0.398E+00   0.932E-01 0.290E-01 0.890E-01
   -.410E+01 -.101E+03 0.362E+04   0.481E+01 0.110E+03 -.363E+04   -.812E+00 -.106E+02 0.105E+02   0.937E-01 0.739E+00 -.833E+00
   0.257E+02 0.429E+02 -.658E+03   -.257E+02 -.426E+02 0.658E+03   -.186E-01 -.308E+00 0.119E+00   -.166E-01 0.190E-01 0.687E-01
   0.892E+02 0.466E+02 0.362E+04   -.981E+02 -.509E+02 -.363E+04   0.958E+01 0.459E+01 0.105E+02   -.686E+00 -.291E+00 -.838E+00
   0.929E+02 -.560E+02 -.358E+04   -.101E+03 0.618E+02 0.359E+04   0.892E+01 -.639E+01 -.101E+02   -.586E+00 0.498E+00 0.889E+00
   0.510E+02 0.268E-01 0.711E+03   -.506E+02 0.961E-01 -.710E+03   -.345E+00 -.159E+00 -.373E+00   0.129E-02 0.311E-01 0.167E-01
   -.244E+01 0.841E+02 -.359E+04   0.158E+01 -.936E+02 0.360E+04   0.110E+01 0.103E+02 -.108E+02   -.238E+00 -.753E+00 0.876E+00
   -.256E+02 0.447E+02 0.709E+03   0.254E+02 -.446E+02 -.709E+03   0.287E+00 -.118E+00 -.273E+00   -.407E-01 -.102E-01 0.768E-02
   -.898E+02 -.493E+02 -.359E+04   0.986E+02 0.532E+02 0.360E+04   -.966E+01 -.406E+01 -.107E+02   0.828E+00 0.165E+00 0.887E+00
   -.258E+02 -.445E+02 0.711E+03   0.257E+02 0.442E+02 -.711E+03   0.532E-01 0.368E+00 -.357E+00   0.248E-01 -.243E-01 0.113E-01
   0.881E+00 0.963E+00 -.235E+04   -.979E+00 -.121E+01 0.235E+04   0.870E-01 0.258E+00 -.181E+01   0.436E-02 0.177E-02 0.975E-01
   -.541E+02 -.316E+01 -.597E+03   0.587E+02 0.345E+01 0.595E+03   -.477E+01 -.299E+00 0.253E+01   0.126E+00 0.779E-02 -.126E-01
   0.549E+02 -.425E+01 -.596E+03   -.595E+02 0.465E+01 0.593E+03   0.478E+01 -.409E+00 0.255E+01   -.122E+00 0.113E-01 -.112E-01
   0.449E+00 0.485E+02 -.578E+03   -.490E+00 -.533E+02 0.580E+03   0.395E-01 0.498E+01 -.271E+01   -.557E-03 -.975E-01 0.480E-01
   -.579E+00 -.419E+02 -.576E+03   0.642E+00 0.460E+02 0.579E+03   -.653E-01 -.431E+01 -.362E+01   0.152E-02 0.830E-01 0.640E-01
 -----------------------------------------------------------------------------------------------
   0.329E+00 -.694E-01 0.175E+02   0.163E-11 -.611E-12 -.206E-10   -.280E+00 0.244E+00 -.267E+02   -.136E-02 0.124E-01 0.899E+01
 
 
 POSITION                                       TOTAL-FORCE (eV/Angst)
 -----------------------------------------------------------------------------------
      0.04772      0.39288      5.19313         0.001802      0.003467      0.016107
      0.06611      0.40726      9.25972         0.007619     -0.002495      0.004330
      0.04421      0.39203      2.36076         0.000207      0.001487     -0.042508
      0.07225      0.39929     12.10506         0.006636     -0.003781      0.052375
      2.61748      1.87548      9.82244         0.002092     -0.002733      0.015464
      2.60449      1.87153     13.44580         0.003014      0.004730      0.028559
      2.60224      1.86944      6.92056         0.002470      0.002006     -0.000510
      2.60246      1.86920      2.72670        -0.000798      0.001908     -0.019019
      0.04482      3.34610      1.21418         0.000962      0.000997     -0.031002
      0.04535      3.34618      4.63925         0.002229      0.009060     -0.000699
      0.07444      3.33263     11.73770         0.003961      0.003136      0.029803
      0.04645      3.34956      7.53286        -0.000033      0.003144      0.012958
      5.15886      0.39017      5.19325         0.001188      0.003463      0.017819
      5.15441      0.36818      9.26041        -0.011176     -0.006361      0.002598
      5.16026      0.39251      2.36086         0.000510      0.001280     -0.043121
      5.14474      0.38871     12.10507        -0.006137     -0.001016      0.049318
      7.71544      1.87023      9.73415         0.001277      0.004230      0.021863
      7.72461      1.86738     12.68161         0.001136      0.003002      0.025120
      7.71881      1.86965      6.88749        -0.000382      0.002722      0.004956
      7.71795      1.86903      2.72530        -0.001012      0.001781     -0.022523
      5.16013      3.34605      1.21402         0.001105      0.000897     -0.031025
      5.15919      3.34640      4.63921         0.000768      0.009210     -0.002029
      5.14891      3.36285     11.73849         0.001448      0.002854      0.030344
      5.15795      3.34641      7.53284        -0.003875     -0.000010      0.012589
     -2.51494      4.82535      5.19225         0.001753      0.003860      0.016808
     -2.53069      4.83771      9.26754         0.000514      0.006298      0.004669
     -2.51310      4.82240      2.36032         0.000373      0.001602     -0.041761
     -2.51790      4.83611     12.11237        -0.001148      0.009768      0.055535
      0.04492      6.28407      9.81019        -0.003058      0.002244      0.024598
      0.04898      6.30128     13.24363        -0.000289      0.000784      0.030376
      0.04464      6.30031      6.91663        -0.000803      0.002580     -0.001359
      0.04454      6.29912      2.72640        -0.001132      0.001273     -0.019428
     -2.51318      7.77640      1.21304         0.001255      0.000681     -0.031259
     -2.51307      7.77634      4.63930         0.001783      0.008916     -0.000870
     -2.50900      7.78807     11.71610        -0.000550     -0.001242      0.027840
     -2.51310      7.77685      7.52672        -0.001885      0.000972      0.015617
      2.60251      4.82265      5.19767         0.000151      0.001578      0.016357
      2.60773      4.82144      9.24832         0.002441      0.003699     -0.001916
      2.60222      4.82267      2.36317         0.000734      0.001619     -0.042971
      2.60463      4.81170     12.07836        -0.001184      0.001836      0.048991
      5.15103      6.31285      9.81050         0.004469      0.005650      0.019813
      5.15861      6.30028     13.24217         0.001894      0.004073      0.031639
      5.16062      6.29939      6.91671         0.002419      0.001793     -0.001290
      5.15996      6.29946      2.72637        -0.001438      0.001892     -0.018876
      2.60254      7.77621      1.21396         0.001105      0.000685     -0.031511
      2.60246      7.77520      4.63931         0.000946      0.008844     -0.001640
      2.58799      7.76415     11.74173        -0.007271     -0.000583      0.029787
      2.60404      7.77440      7.53407         0.000251     -0.000459      0.012007
      1.63535      0.39051      3.73597         0.003309     -0.005466      0.013115
      3.59163      0.38165     10.68925         0.007078      0.023592     -0.024761
     -0.74906      1.77081      3.73497        -0.002644      0.009362      0.019683
     -1.73551      3.39189     10.75708        -0.006889     -0.007701     -0.019053
      1.80648      3.44584      3.73731        -0.001558     -0.002111      0.015424
      0.83971      1.76412     10.68548         0.007155      0.003216     -0.018624
     -0.94642      1.85906      8.36317         0.010019     -0.000060     -0.010154
      0.99415      1.81738      1.44596        -0.021897      0.012735      0.022207
      1.82916      3.22698      8.37370        -0.004823      0.007066     -0.004513
      3.45129      0.50253      1.44557        -0.009542     -0.038344      0.024388
      1.82274      0.51867      8.37390        -0.002036     -0.010392     -0.012372
     -1.75397      3.28748      1.44485         0.035853      0.009896      0.025922
      1.67945      3.37575     12.99295         0.027547     -0.044152     -0.024871
     -1.52056      3.35387      6.06240        -0.008540     -0.010111     -0.002882
      1.78471      0.30765     12.99157         0.000849      0.058713     -0.008199
      0.82366      1.98720      6.06767         0.006259     -0.001940     -0.009671
     -0.69307      1.93232     12.99307        -0.015881     -0.020159     -0.032007
      3.39090      0.26925      6.06854         0.003877      0.014476     -0.001532
      6.75111      0.39054      3.73515         0.003372     -0.005474      0.012709
      8.64490      0.43913     10.75934         0.002789      0.002790     -0.016557
      4.36578      1.77062      3.73517        -0.002679      0.007341      0.021173
      3.40967      3.46398     10.68960        -0.010893     -0.006247     -0.021775
      6.92056      3.44575      3.73444        -0.002459     -0.000189      0.013788
      6.00521      1.78158     10.75251         0.007965     -0.003107     -0.024000
      4.18098      1.86102      8.38738         0.011246      0.008332     -0.004581
      6.10953      1.81712      1.44470        -0.022791      0.012586      0.024336
      6.94156      3.23794      8.36906        -0.011070      0.003282     -0.010399
      8.56716      0.50258      1.44479        -0.007879     -0.037540      0.024182
      6.92206      0.51457      8.36825         0.002525     -0.014657     -0.010660
      3.36173      3.28796      1.44692         0.036685      0.010235      0.024286
      6.75721      3.40350     12.98386         0.013406     -0.009367     -0.030929
      3.59554      3.35173      6.07152        -0.005682     -0.006418     -0.004380
      6.85976      0.27218     12.98580        -0.007278      0.022856     -0.040831
      5.93668      1.98767      6.06329         0.010658     -0.005622     -0.002869
      4.36363      1.92841     12.98409        -0.038004     -0.014650     -0.013118
      8.50634      0.26743      6.06207         0.002719      0.015725      0.001112
     -0.92204      4.82138      3.73457         0.002433     -0.006068      0.013647
      1.01625      4.81494     10.70954         0.000624      0.009323     -0.028824
     -3.30682      6.20136      3.73534        -0.003133      0.008865      0.018776
     -4.27816      7.89111     10.70772        -0.025311     -0.008208     -0.035538
     -0.75254      7.87612      3.73560        -0.003882     -0.001399      0.013033
     -1.72229      6.18947     10.71024         0.016291     -0.015231     -0.036245
     -3.50855      6.30004      8.37551         0.002480      0.001580     -0.001142
     -1.56387      6.24771      1.44505        -0.021881      0.012582      0.024071
     -0.73359      7.64850      8.37094        -0.011694     -0.003513     -0.007930
      0.89393      4.93274      1.44625        -0.012553     -0.039827      0.020624
     -0.75256      4.93586      8.39054         0.002075     -0.016299     -0.010575
     -4.31166      7.71779      1.44547         0.035443      0.011113      0.025104
     -0.91380      7.82239     13.01024         0.031231     -0.021316     -0.016740
     -4.07962      7.78291      6.06935        -0.009828     -0.005402     -0.010103
     -0.79266      4.71866     12.99690         0.006621      0.032140     -0.023386
     -1.73572      6.41632      6.06829         0.005408     -0.004414     -0.009927
     -3.27479      6.37784     13.00706        -0.039785     -0.026559     -0.017208
      0.83120      4.69877      6.07062         0.002954      0.012289      0.001864
      4.19235      4.82222      3.73758         0.002339     -0.007284      0.014601
      6.12559      4.84002     10.70866        -0.004422      0.006670     -0.026204
      1.80785      6.19982      3.73755        -0.002513      0.006877      0.016311
      0.83090      7.86330     10.70719        -0.002107     -0.005070     -0.024363
      4.36363      7.87540      3.73475        -0.003825      0.000453      0.013044
      3.39607      6.20575     10.71204         0.008211     -0.005913     -0.032574
      1.60854      6.28978      8.37438         0.008849      0.002814     -0.002133
      3.55144      6.24734      1.44624        -0.023829      0.012249      0.022722
      4.37842      7.67440      8.39003        -0.007544     -0.005644     -0.014244
      6.00889      4.93297      1.44575        -0.008708     -0.038107      0.023022
      4.37453      4.95535      8.37065         0.007731     -0.011507     -0.002475
      0.80403      7.71759      1.44617         0.035913      0.009987      0.024885
      4.22199      7.82811     12.99631         0.016960     -0.024992     -0.023271
      1.03617      7.78120      6.06721        -0.008548     -0.006749     -0.007233
      4.30357      4.71572     13.01418         0.006866      0.030112     -0.024011
      3.37996      6.41892      6.07110         0.010239     -0.003169     -0.007490
      1.84729      6.34175     13.01033        -0.038514     -0.003842     -0.025540
      5.94758      4.70095      6.06599         0.004208      0.015084      0.000769
      2.56787      1.84062     16.10147        -0.006899      0.007669     -0.008983
      3.50227      1.90047     15.51232        -0.051445     -0.003310      0.036624
      1.63354      1.92097     15.51768         0.056042     -0.003235      0.038713
      2.56069      0.88047     16.62557        -0.001970      0.055915     -0.032864
      2.58094      2.67918     16.80559        -0.001638     -0.058501     -0.045317
 -----------------------------------------------------------------------------------
    total drift:                                0.047220      0.187030     -0.250088


--------------------------------------------------------------------------------------------------------



  FREE ENERGIE OF THE ION-ELECTRON SYSTEM (eV)
  ---------------------------------------------------
  free  energy   TOTEN  =      -831.19146894 eV

  energy  without entropy=     -831.19146894  energy(sigma->0) =     -831.19146894
 


--------------------------------------------------------------------------------------------------------


    POTLOK:  cpu time    1.50: real time    1.51


--------------------------------------------------------------------------------------------------------


 stress matrix after NEB project (eV)
     28.63656     -0.03231     -0.06722
     -0.03231     28.55731     -0.03873
     -0.06722     -0.03868     16.52319
  FORCES: max atom, RMS     0.074018    0.030858
  FORCE total and by dimension    0.345008    0.058713
  Stress total and by dimension   43.687557   28.636560


--------------------------------------------------------------------------------------------------------


     LOOP+:  cpu time  929.71: real time  931.59
    4ORBIT:  cpu time    0.00: real time    0.00

 total amount of memory used by VASP on root node   576375. kBytes
========================================================================

   base      :      30000. kBytes
   nonlr-proj:      30101. kBytes
   fftplans  :      11616. kBytes
   grid      :      84883. kBytes
   one-center:       3888. kBytes
   wavefun   :     415887. kBytes
 
  
  
 General timing and accounting informations for this job:
 ========================================================
  
                  Total CPU time used (sec):      966.704
                            User time (sec):      931.294
                          System time (sec):       35.410
                         Elapsed time (sec):      969.334
  
                   Maximum memory used (kb):      763124.
                   Average memory used (kb):           0.
  
                          Minor page faults:     14124985
                          Major page faults:            0
                 Voluntary context switches:         1868
