 vasp.5.3.5 31Mar14 (build Oct 16 2014 10:50:22) complex                        
  
 executed on               ARCHER date 2015.02.12  12:35:39
 running on  120 total cores
 distrk:  each k-point on   24 cores,    5 groups
 distr:  one band on NCORES_PER_BAND=   1 cores,   24 groups


--------------------------------------------------------------------------------------------------------


 INCAR:
 POTCAR:    PAW_PBE Fe_pv 02Aug2007               
 POTCAR:    PAW_PBE O 08Apr2002                   
 POTCAR:    PAW_PBE C 08Apr2002                   
 POTCAR:    PAW_PBE H 15Jun2001                   

 ----------------------------------------------------------------------------- 
|                                                                             |
|           W    W    AA    RRRRR   N    N  II  N    N   GGGG   !!!           |
|           W    W   A  A   R    R  NN   N  II  NN   N  G    G  !!!           |
|           W    W  A    A  R    R  N N  N  II  N N  N  G       !!!           |
|           W WW W  AAAAAA  RRRRR   N  N N  II  N  N N  G  GGG   !            |
|           WW  WW  A    A  R   R   N   NN  II  N   NN  G    G                |
|           W    W  A    A  R    R  N    N  II  N    N   GGGG   !!!           |
|                                                                             |
|      For optimal performance we recommend to set                            |
|        NCORE= 4 - approx SQRT( number of cores)                             |
|      NCORE specifies how many cores store one orbital (NPAR=cpu/NCORE).     |
|      This setting can  greatly improve the performance of VASP for DFT.     |
|      The default, NPAR=number of cores might be grossly inefficient         |
|      on modern multi-core architectures or massively parallel machines.     |
|      Do your own testing !!!!                                               |
|      Unfortunately you need to use the default for GW and RPA calculations. |
|      (for HF NCORE is supported but not extensively tested yet)             |
|                                                                             |
 ----------------------------------------------------------------------------- 


 ----------------------------------------------------------------------------- 
|                                                                             |
|           W    W    AA    RRRRR   N    N  II  N    N   GGGG   !!!           |
|           W    W   A  A   R    R  NN   N  II  NN   N  G    G  !!!           |
|           W    W  A    A  R    R  N N  N  II  N N  N  G       !!!           |
|           W WW W  AAAAAA  RRRRR   N  N N  II  N  N N  G  GGG   !            |
|           WW  WW  A    A  R   R   N   NN  II  N   NN  G    G                |
|           W    W  A    A  R    R  N    N  II  N    N   GGGG   !!!           |
|                                                                             |
|      You have enabled k-point parallelism (KPAR>1).                         |
|      This developmental code was originally  written by Paul Kent at ORNL,  |
|      and carefully double checked in Vienna.                                |
|      GW as well as linear response parallelism added by Martijn Marsman     |
|      and Georg Kresse.                                                      |
|      Carefully verify results versus KPAR=1.                                |
|      Report problems to Paul Kent and Vienna.                               |
|                                                                             |
 ----------------------------------------------------------------------------- 

 POTCAR:    PAW_PBE Fe_pv 02Aug2007               
   VRHFIN =Fe:  3pd7s1                                                          
   LEXCH  = PE                                                                  
   EATOM  =  2457.4239 eV,  180.6156 Ry                                         
                                                                                
   TITEL  = PAW_PBE Fe_pv 02Aug2007                                             
   LULTRA =        F    use ultrasoft PP ?                                      
   IUNSCR =        1    unscreen: 0-lin 1-nonlin 2-no                           
   RPACOR =    1.750    partial core radius                                     
   POMASS =   55.847; ZVAL   =   14.000    mass and valenz                      
   RCORE  =    2.200    outmost cutoff radius                                   
   RWIGS  =    2.200; RWIGS  =    1.164    wigner-seitz radius (au A)           
   ENMAX  =  293.238; ENMIN  =  219.928 eV                                      
   ICORE  =        3    local potential                                         
   LCOR   =        T    correct aug charges                                     
   LPAW   =        T    paw PP                                                  
   EAUG   =  578.342                                                            
   DEXC   =    0.000                                                            
   RMAX   =    2.249    core radius for proj-oper                               
   RAUG   =    1.300    factor for augmentation sphere                          
   RDEP   =    2.296    radius for radial grids                                 
   RDEPT  =    1.766    core radius for aug-charge                              
                                                                                
   Atomic configuration                                                         
    8 entries                                                                   
     n  l   j            E        occ.                                          
     1  0  0.50     -6993.8440   2.0000                                         
     2  0  0.50      -814.6047   2.0000                                         
     2  1  1.50      -693.3689   6.0000                                         
     3  0  0.50       -89.4732   2.0000                                         
     3  1  1.50       -55.6373   6.0000                                         
     3  2  2.50        -3.8151   7.0000                                         
     4  0  0.50        -4.2551   1.0000                                         
     4  3  2.50        -1.3606   0.0000                                         
   Description                                                                  
     l       E           TYP  RCUT    TYP  RCUT                                 
     1    -55.6372668     23  2.000                                             
     1     -5.4423304     23  2.000                                             
     2     -3.8151096     23  2.200                                             
     2     -5.1756922     23  2.200                                             
     0     -4.2550951     23  2.200                                             
     0     27.2116520     23  2.200                                             
     3     -1.3605826     23  2.200                                             
  local pseudopotential read in
  partial core-charges read in
  partial kinetic energy density read in
  atomic valenz-charges read in
  non local Contribution for L=           1  read in
    real space projection operators read in
  non local Contribution for L=           1  read in
    real space projection operators read in
  non local Contribution for L=           2  read in
    real space projection operators read in
  non local Contribution for L=           2  read in
    real space projection operators read in
  non local Contribution for L=           0  read in
    real space projection operators read in
  non local Contribution for L=           0  read in
    real space projection operators read in
    PAW grid and wavefunctions read in
 
   number of l-projection  operators is LMAX  =           6
   number of lm-projection operators is LMMAX =          18
 
 POTCAR:    PAW_PBE O 08Apr2002                   
   VRHFIN =O: s2p4                                                              
   LEXCH  = PE                                                                  
   EATOM  =   432.3788 eV,   31.7789 Ry                                         
                                                                                
   TITEL  = PAW_PBE O 08Apr2002                                                 
   LULTRA =        F    use ultrasoft PP ?                                      
   IUNSCR =        1    unscreen: 0-lin 1-nonlin 2-no                           
   RPACOR =    1.200    partial core radius                                     
   POMASS =   16.000; ZVAL   =    6.000    mass and valenz                      
   RCORE  =    1.520    outmost cutoff radius                                   
   RWIGS  =    1.550; RWIGS  =    0.820    wigner-seitz radius (au A)           
   ENMAX  =  400.000; ENMIN  =  300.000 eV                                      
   ICORE  =        2    local potential                                         
   LCOR   =        T    correct aug charges                                     
   LPAW   =        T    paw PP                                                  
   EAUG   =  605.392                                                            
   DEXC   =    0.000                                                            
   RMAX   =    1.553    core radius for proj-oper                               
   RAUG   =    1.300    factor for augmentation sphere                          
   RDEP   =    1.550    radius for radial grids                                 
   RDEPT  =    1.329    core radius for aug-charge                              
                                                                                
   Atomic configuration                                                         
    4 entries                                                                   
     n  l   j            E        occ.                                          
     1  0  0.50      -514.6923   2.0000                                         
     2  0  0.50       -23.9615   2.0000                                         
     2  1  0.50        -9.0305   4.0000                                         
     3  2  1.50        -9.5241   0.0000                                         
   Description                                                                  
     l       E           TYP  RCUT    TYP  RCUT                                 
     0    -23.9615318     23  1.200                                             
     0     -9.5240782     23  1.200                                             
     1     -9.0304911     23  1.520                                             
     1      8.1634956     23  1.520                                             
     2     -9.5240782      7  1.500                                             
  local pseudopotential read in
  partial core-charges read in
  partial kinetic energy density read in
  kinetic energy density of atom read in
  atomic valenz-charges read in
  non local Contribution for L=           0  read in
    real space projection operators read in
  non local Contribution for L=           0  read in
    real space projection operators read in
  non local Contribution for L=           1  read in
    real space projection operators read in
  non local Contribution for L=           1  read in
    real space projection operators read in
    PAW grid and wavefunctions read in
 
   number of l-projection  operators is LMAX  =           4
   number of lm-projection operators is LMMAX =           8
 
 POTCAR:    PAW_PBE C 08Apr2002                   
   VRHFIN =C: s2p2                                                              
   LEXCH  = PE                                                                  
   EATOM  =   147.1560 eV,   10.8157 Ry                                         
                                                                                
   TITEL  = PAW_PBE C 08Apr2002                                                 
   LULTRA =        F    use ultrasoft PP ?                                      
   IUNSCR =        1    unscreen: 0-lin 1-nonlin 2-no                           
   RPACOR =    1.200    partial core radius                                     
   POMASS =   12.011; ZVAL   =    4.000    mass and valenz                      
   RCORE  =    1.500    outmost cutoff radius                                   
   RWIGS  =    1.630; RWIGS  =    0.863    wigner-seitz radius (au A)           
   ENMAX  =  400.000; ENMIN  =  300.000 eV                                      
   ICORE  =        2    local potential                                         
   LCOR   =        T    correct aug charges                                     
   LPAW   =        T    paw PP                                                  
   EAUG   =  644.873                                                            
   DEXC   =    0.000                                                            
   RMAX   =    1.529    core radius for proj-oper                               
   RAUG   =    1.300    factor for augmentation sphere                          
   RDEP   =    1.501    radius for radial grids                                 
   RDEPT  =    1.300    core radius for aug-charge                              
                                                                                
   Atomic configuration                                                         
    4 entries                                                                   
     n  l   j            E        occ.                                          
     1  0  0.50      -273.3789   2.0000                                         
     2  0  0.50       -13.7508   2.0000                                         
     2  1  0.50        -5.2854   2.0000                                         
     3  2  1.50        -5.4423   0.0000                                         
   Description                                                                  
     l       E           TYP  RCUT    TYP  RCUT                                 
     0    -13.7508458     23  1.200                                             
     0     -8.2022199     23  1.200                                             
     1     -5.2854383     23  1.500                                             
     1     34.0145650     23  1.500                                             
     2     -5.4423304      7  1.500                                             
  local pseudopotential read in
  partial core-charges read in
  partial kinetic energy density read in
  atomic valenz-charges read in
  non local Contribution for L=           0  read in
    real space projection operators read in
  non local Contribution for L=           0  read in
    real space projection operators read in
  non local Contribution for L=           1  read in
    real space projection operators read in
  non local Contribution for L=           1  read in
    real space projection operators read in
    PAW grid and wavefunctions read in
 
   number of l-projection  operators is LMAX  =           4
   number of lm-projection operators is LMMAX =           8
 
 POTCAR:    PAW_PBE H 15Jun2001                   
   VRHFIN =H: ultrasoft test                                                    
   LEXCH  = PE                                                                  
   EATOM  =    12.4884 eV,    0.9179 Ry                                         
                                                                                
   TITEL  = PAW_PBE H 15Jun2001                                                 
   LULTRA =        F    use ultrasoft PP ?                                      
   IUNSCR =        0    unscreen: 0-lin 1-nonlin 2-no                           
   RPACOR =    0.000    partial core radius                                     
   POMASS =    1.000; ZVAL   =    1.000    mass and valenz                      
   RCORE  =    1.100    outmost cutoff radius                                   
   RWIGS  =    0.700; RWIGS  =    0.370    wigner-seitz radius (au A)           
   ENMAX  =  250.000; ENMIN  =  200.000 eV                                      
   RCLOC  =    0.701    cutoff for local pot                                    
   LCOR   =        T    correct aug charges                                     
   LPAW   =        T    paw PP                                                  
   EAUG   =  400.000                                                            
   RMAX   =    1.123    core radius for proj-oper                               
   RAUG   =    1.200    factor for augmentation sphere                          
   RDEP   =    1.112    radius for radial grids                                 
   RDEPT  =    0.926    core radius for aug-charge                              
                                                                                
   Atomic configuration                                                         
    2 entries                                                                   
     n  l   j            E        occ.                                          
     1  0  0.50        -6.4927   1.0000                                         
     2  1  0.50        -3.4015   0.0000                                         
   Description                                                                  
     l       E           TYP  RCUT    TYP  RCUT                                 
     0     -6.4927494     23  1.100                                             
     0      6.8029130     23  1.100                                             
     1     -4.0817478     23  1.100                                             
  local pseudopotential read in
  atomic valenz-charges read in
  non local Contribution for L=           0  read in
    real space projection operators read in
  non local Contribution for L=           0  read in
    real space projection operators read in
  non local Contribution for L=           1  read in
    real space projection operators read in
    PAW grid and wavefunctions read in
 
   number of l-projection  operators is LMAX  =           3
   number of lm-projection operators is LMMAX =           5
 
 Optimization of the real space projectors (new method)

 maximal supplied QI-value         = 17.01
 optimisation between [QCUT,QGAM] = [ 11.57, 23.30] = [ 37.45,152.03] Ry 
 Optimized for a Real-space Cutoff    1.40 Angstroem

   l    n(q)    QCUT    max X(q) W(low)/X(q) W(high)/X(q)  e(spline) 
   1      9    11.565     4.267    0.25E-03    0.26E-03    0.15E-06
   1      9    11.565     5.750    0.39E-03    0.39E-03    0.22E-06
   2      9    11.565    53.656    0.10E-03    0.13E-03    0.16E-06
   2      9    11.565    49.521    0.10E-03    0.13E-03    0.16E-06
   0     10    11.565    31.246    0.56E-04    0.21E-04    0.74E-07
   0     10    11.565    12.201    0.39E-04    0.19E-04    0.62E-07
 Optimization of the real space projectors (new method)

 maximal supplied QI-value         = 24.76
 optimisation between [QCUT,QGAM] = [ 11.64, 23.27] = [ 37.91,151.63] Ry 
 Optimized for a Real-space Cutoff    1.04 Angstroem

   l    n(q)    QCUT    max X(q) W(low)/X(q) W(high)/X(q)  e(spline) 
   0      7    11.635    20.381    0.14E-03    0.49E-03    0.18E-06
   0      7    11.635    15.268    0.16E-03    0.52E-03    0.19E-06
   1      7    11.635     5.964    0.30E-03    0.44E-03    0.22E-06
   1      7    11.635     5.382    0.27E-03    0.34E-03    0.19E-06
 Optimization of the real space projectors (new method)

 maximal supplied QI-value         = 25.13
 optimisation between [QCUT,QGAM] = [ 11.56, 23.12] = [ 37.43,149.72] Ry 
 Optimized for a Real-space Cutoff    1.04 Angstroem

   l    n(q)    QCUT    max X(q) W(low)/X(q) W(high)/X(q)  e(spline) 
   0      7    11.561   115.676    0.20E-03    0.60E-03    0.21E-06
   0      7    11.561    87.132    0.20E-03    0.59E-03    0.21E-06
   1      7    11.561     4.429    0.23E-03    0.35E-03    0.15E-06
   1      7    11.561     2.733    0.18E-03    0.25E-03    0.12E-06
 Optimization of the real space projectors (new method)

 maximal supplied QI-value         = 34.20
 optimisation between [QCUT,QGAM] = [ 11.63, 23.26] = [ 37.87,151.49] Ry 
 Optimized for a Real-space Cutoff    1.14 Angstroem

   l    n(q)    QCUT    max X(q) W(low)/X(q) W(high)/X(q)  e(spline) 
   0      8    11.629    19.460    0.27E-03    0.65E-03    0.17E-06
   0      8    11.629    12.209    0.25E-03    0.62E-03    0.16E-06
   1      7    11.629     4.655    0.29E-03    0.85E-04    0.19E-06
  PAW_PBE Fe_pv 02Aug2007               :
 energy of atom  1       EATOM=-2457.4239
 kinetic energy error for atom=    0.0062 (will be added to EATOM!!)
  PAW_PBE O 08Apr2002                   :
 energy of atom  2       EATOM= -432.3788
 kinetic energy error for atom=    0.0208 (will be added to EATOM!!)
  PAW_PBE C 08Apr2002                   :
 energy of atom  3       EATOM= -147.1560
 kinetic energy error for atom=    0.0071 (will be added to EATOM!!)
  PAW_PBE H 15Jun2001                   :
 energy of atom  4       EATOM=  -12.4884
 kinetic energy error for atom=    0.0014 (will be added to EATOM!!)
 
 
 POSCAR:  hematite with methane                  
  positions in direct lattice
  No initial velocities read in
 exchange correlation table for  LEXCH =        8
   RHO(1)=    0.500       N(1)  =     2000
   RHO(2)=  100.500       N(2)  =     4000

 VTST: version 3.1, (03/28/14)

 CHAIN: initializing optimizer
 
 OPT: Using VASP Conjugate-Gradient optimizer
 CHAIN: Read ICHAIN            0
 
 POSCAR:  hematite with methane                  
  positions in direct lattice
  No initial velocities read in
 


--------------------------------------------------------------------------------------------------------


 ion  position               nearest neighbor table
   1  0.027  0.044  0.139-  64 1.98  98 1.98  84 1.98  49 2.16  51 2.16 107 2.16
   2  0.027  0.044  0.247- 111 1.98  59 1.98  55 1.98  68 2.14  88 2.15  54 2.15
   3  0.026  0.044  0.063-  76 1.94  96 1.94  56 1.94 107 2.10  51 2.10  49 2.10
   4  0.032  0.047  0.323-  63 1.91  65 1.95 115 1.95  88 2.10  54 2.11  68 2.14
   5  0.361  0.212  0.263-  54 1.97  50 1.97  70 1.98  73 2.14  57 2.14  59 2.15
   6  0.363  0.200  0.368-  83 1.87  63 1.87  61 2.02 121 2.04
   7  0.360  0.211  0.185-  66 1.98  64 1.98  80 1.98  59 2.13  73 2.13  57 2.15
   8  0.360  0.211  0.073-  53 2.03  49 2.03  69 2.04  58 2.06  56 2.06  78 2.06
   9  0.193  0.378  0.032-  60 1.81  56 1.81  94 1.81
  10  0.193  0.377  0.124-  51 1.98  53 1.98  85 1.98 102 2.11  62 2.12  64 2.12
  11  0.186  0.375  0.311-  52 1.97  54 1.99  86 2.03  99 2.04  65 2.05  61 2.26
  12  0.193  0.377  0.201-  95 1.97  55 1.98  57 1.98  64 2.14  62 2.15 102 2.15
  13  0.526  0.045  0.139-  82 1.98  66 1.98 116 1.98  69 2.15  89 2.16  67 2.16
  14  0.525  0.046  0.248-  73 1.97  93 1.99  77 1.99  50 2.09  72 2.13 106 2.26
  15  0.526  0.044  0.063- 114 1.94  74 1.94  58 1.94  67 2.10  89 2.10  69 2.10
  16  0.528  0.050  0.324-  83 1.91  97 1.93  81 1.96  72 2.09  50 2.12 106 2.17
  17  0.857  0.207  0.262-  68 1.97  72 1.98  52 1.99  77 2.10  55 2.13  75 2.14
  18  0.862  0.212  0.356-  81 1.81  79 1.82  65 1.82
  19  0.860  0.211  0.185-  62 1.97  84 1.98  82 1.98  55 2.13  75 2.13  77 2.17
  20  0.860  0.211  0.073-  67 2.03  51 2.04  71 2.04  76 2.06  60 2.06  74 2.06
  21  0.693  0.378  0.032-  78 1.81 112 1.81  74 1.81
  22  0.693  0.378  0.124- 103 1.98  69 1.98  71 1.98  82 2.12  80 2.12 120 2.12
  23  0.692  0.376  0.314-  83 2.01  72 2.05 117 2.06  79 2.06  70 2.06 104 2.08
  24  0.693  0.378  0.201-  75 1.97  73 1.97 113 1.97  80 2.14  82 2.14 120 2.14
  25  0.026  0.544  0.139- 120 1.98  62 1.98 100 1.98  71 2.15  87 2.16  85 2.16
  26  0.024  0.541  0.248-  75 1.97  91 1.98  95 1.99  52 2.11 104 2.12  90 2.26
  27  0.026  0.544  0.063-  92 1.94 112 1.94  60 1.94  85 2.10  87 2.10  71 2.10
  28  0.027  0.546  0.324- 101 1.93  79 1.93  99 1.96 104 2.10  90 2.12  52 2.15
  29  0.360  0.711  0.260-  90 1.99 106 1.99  86 2.01  93 2.07  95 2.07 109 2.07
  30  0.362  0.716  0.336-  97 1.84 119 1.85  99 1.86
  31  0.360  0.711  0.184- 100 1.96 116 1.96 102 1.97  93 2.16 109 2.16  95 2.17
  32  0.360  0.711  0.073-  85 2.03 105 2.04  89 2.04 114 2.06  94 2.06  92 2.06
  33  0.193  0.878  0.032-  96 1.81  58 1.81  92 1.81
  34  0.193  0.878  0.124-  49 1.98  89 1.98  87 1.98 100 2.11  98 2.12  66 2.12
  35  0.197  0.886  0.314-  63 2.00  97 2.03  50 2.04  88 2.04 101 2.08  90 2.10
  36  0.193  0.878  0.201-  91 1.97  59 1.97  93 1.97  98 2.14  66 2.14 100 2.15
  37  0.527  0.544  0.139-  80 1.98 118 1.98 102 1.98 103 2.15 105 2.16  53 2.16
  38  0.529  0.545  0.247- 113 1.97  57 1.98 109 1.98  70 2.14 108 2.15  86 2.22
  39  0.526  0.544  0.063-  94 1.94 110 1.94  78 1.94  53 2.10 105 2.10 103 2.10
  40  0.535  0.549  0.323- 119 1.92 117 1.93  70 2.06  61 2.06 108 2.06  86 2.14
  41  0.863  0.712  0.263-  88 1.98 108 1.98 104 1.98  91 2.11 111 2.14 113 2.14
  42  0.863  0.714  0.357- 101 1.81 115 1.81 117 1.82
  43  0.860  0.711  0.185-  98 1.98 118 1.98 120 1.98 111 2.13 113 2.13  91 2.16
  44  0.860  0.711  0.073-  87 2.03 103 2.03 107 2.04  96 2.06 112 2.06 110 2.06
  45  0.693  0.878  0.032-  76 1.81 110 1.81 114 1.81
  46  0.693  0.878  0.124- 107 1.98 105 1.98  67 1.98 116 2.11  84 2.12 118 2.12
  47  0.698  0.880  0.314-  68 2.02 115 2.04  81 2.04 119 2.05 106 2.06 108 2.06
  48  0.694  0.878  0.201- 109 1.97  77 1.97 111 1.98  84 2.14 118 2.15 116 2.15
  49  0.182  0.044  0.100-  34 1.98   8 2.03   3 2.10   1 2.16
  50  0.373  0.045  0.285-   5 1.97  35 2.04  14 2.09  16 2.12
  51  0.027  0.200  0.100-  10 1.98  20 2.04   3 2.10   1 2.16
  52  0.024  0.389  0.285-  11 1.97  17 1.99  26 2.11  28 2.15
  53  0.371  0.389  0.100-  10 1.98   8 2.03  39 2.10  37 2.16
  54  0.182  0.202  0.286-   5 1.97  11 1.99   4 2.11   2 2.15
  55  0.012  0.210  0.224-  12 1.98   2 1.98  19 2.13  17 2.13
  56  0.200  0.205  0.039-   9 1.81   3 1.94   8 2.06
  57  0.361  0.366  0.224-  12 1.98  38 1.98   5 2.14   7 2.15
  58  0.366  0.057  0.039-  33 1.81  15 1.94   8 2.06
  59  0.207  0.059  0.224-  36 1.97   2 1.98   7 2.13   5 2.15
  60  0.014  0.371  0.039-   9 1.81  27 1.94  20 2.06
  61  0.355  0.383  0.351- 123 0.98   6 2.02  40 2.06  11 2.26
  62  0.040  0.378  0.162-  19 1.97  25 1.98  10 2.12  12 2.15
  63  0.193  0.038  0.347-   6 1.87   4 1.91  35 2.00
  64  0.193  0.225  0.162-   7 1.98   1 1.98  10 2.12  12 2.14
  65  0.041  0.220  0.347-  18 1.82   4 1.95  11 2.05
  66  0.347  0.031  0.162-  13 1.98   7 1.98  34 2.12  36 2.14
  67  0.682  0.044  0.100-  46 1.98  20 2.03  15 2.10  13 2.16
  68  0.872  0.044  0.286-  17 1.97  47 2.02   4 2.14   2 2.14
  69  0.527  0.200  0.100-  22 1.98   8 2.04  15 2.10  13 2.15
  70  0.526  0.392  0.287-   5 1.98  40 2.06  23 2.06  38 2.14
  71  0.871  0.389  0.100-  22 1.98  20 2.04  27 2.10  25 2.15
  72  0.680  0.199  0.286-  17 1.98  23 2.05  16 2.09  14 2.13
  73  0.513  0.212  0.224-  14 1.97  24 1.97   7 2.13   5 2.14
  74  0.700  0.205  0.039-  21 1.81  15 1.94  20 2.06
  75  0.860  0.363  0.224-  26 1.97  24 1.97  19 2.13  17 2.14
  76  0.866  0.057  0.039-  45 1.81   3 1.94  20 2.06
  77  0.704  0.057  0.224-  48 1.97  14 1.99  17 2.10  19 2.17
  78  0.514  0.371  0.039-  21 1.81  39 1.94   8 2.06
  79  0.855  0.382  0.348-  18 1.82  28 1.93  23 2.06
  80  0.541  0.378  0.162-  37 1.98   7 1.98  22 2.12  24 2.14
  81  0.691  0.035  0.347-  18 1.81  16 1.96  47 2.04
  82  0.692  0.224  0.162-  13 1.98  19 1.98  22 2.12  24 2.14
  83  0.538  0.221  0.347-   6 1.87  16 1.91  23 2.01
  84  0.846  0.030  0.162-  19 1.98   1 1.98  46 2.12  48 2.14
  85  0.182  0.544  0.100-  10 1.98  32 2.03  27 2.10  25 2.16
  86  0.370  0.547  0.287-  29 2.01  11 2.03  40 2.14  38 2.22
  87  0.027  0.700  0.100-  34 1.98  44 2.03  27 2.10  25 2.16
  88  0.029  0.891  0.286-  41 1.98  35 2.04   4 2.10   2 2.15
  89  0.371  0.889  0.100-  34 1.98  32 2.04  15 2.10  13 2.16
  90  0.191  0.702  0.288-  29 1.99  35 2.10  28 2.12  26 2.26
  91  0.014  0.710  0.224-  36 1.97  26 1.98  41 2.11  43 2.16
  92  0.200  0.705  0.039-  33 1.81  27 1.94  32 2.06
  93  0.361  0.865  0.223-  36 1.97  14 1.99  29 2.07  31 2.16
  94  0.366  0.557  0.039-   9 1.81  39 1.94  32 2.06
  95  0.205  0.558  0.224-  12 1.97  26 1.99  29 2.07  31 2.17
  96  0.014  0.871  0.039-  33 1.81   3 1.94  44 2.06
  97  0.355  0.887  0.347-  30 1.84  16 1.93  35 2.03
  98  0.041  0.878  0.162-  43 1.98   1 1.98  34 2.12  36 2.14
  99  0.192  0.530  0.346-  30 1.86  28 1.96  11 2.04
 100  0.192  0.724  0.162-  31 1.96  25 1.98  34 2.11  36 2.15
 101  0.039  0.719  0.348-  42 1.81  28 1.93  35 2.08
 102  0.346  0.530  0.162-  31 1.97  37 1.98  10 2.11  12 2.15
 103  0.682  0.544  0.100-  22 1.98  44 2.03  39 2.10  37 2.15
 104  0.874  0.545  0.286-  41 1.98  23 2.08  28 2.10  26 2.12
 105  0.527  0.700  0.100-  46 1.98  32 2.04  39 2.10  37 2.16
 106  0.521  0.880  0.288-  29 1.99  47 2.06  16 2.17  14 2.26
 107  0.871  0.889  0.100-  46 1.98  44 2.04   3 2.10   1 2.16
 108  0.684  0.701  0.286-  41 1.98  47 2.06  40 2.06  38 2.15
 109  0.513  0.710  0.223-  48 1.97  38 1.98  29 2.07  31 2.16
 110  0.700  0.705  0.039-  45 1.81  39 1.94  44 2.06
 111  0.861  0.864  0.224-  48 1.98   2 1.98  43 2.13  41 2.14
 112  0.866  0.557  0.039-  21 1.81  27 1.94  44 2.06
 113  0.708  0.559  0.224-  38 1.97  24 1.97  43 2.13  41 2.14
 114  0.514  0.871  0.039-  45 1.81  15 1.94  32 2.06
 115  0.857  0.885  0.348-  42 1.81   4 1.95  47 2.04
 116  0.541  0.879  0.162-  31 1.96  13 1.98  46 2.11  48 2.15
 117  0.693  0.536  0.348-  42 1.82  40 1.93  23 2.06
 118  0.693  0.724  0.162-  43 1.98  37 1.98  46 2.12  48 2.15
 119  0.539  0.716  0.347-  30 1.85  40 1.92  47 2.05
 120  0.847  0.531  0.162-  25 1.98  43 1.98  22 2.12  24 2.14
 121  0.360  0.200  0.423- 122 1.10 125 1.10 124 1.10   6 2.04
 122  0.358  0.098  0.433- 121 1.10
 123  0.322  0.427  0.370-  61 0.98
 124  0.258  0.200  0.432- 121 1.10
 125  0.461  0.300  0.433- 121 1.10
 
  LATTYP: Found a hexagonal cell.
 ALAT       =    10.2313750982
 C/A-ratio  =     3.6565155755
  
  Lattice vectors:
  
 A1 = (  10.2313750981,   0.0000000000,   0.0000000000)
 A2 = (  -5.1156875490,   8.8606307507,   0.0000000000)
 A3 = (   0.0000000000,   0.0000000000,  37.4111824051)


Analysis of symmetry for initial positions (statically):
=====================================================================
 Subroutine PRICEL returns:
 Original cell was already a primitive cell.
 

 Routine SETGRP: Setting up the symmetry group for a 
 hexagonal supercell.


 Subroutine GETGRP returns: Found  1 space group operations
 (whereof  1 operations were pure point group operations)
 out of a pool of 24 trial point group operations.


The static configuration has the point symmetry C_1 .


Analysis of symmetry for dynamics (positions and initial velocities):
=====================================================================
 Subroutine PRICEL returns:
 Original cell was already a primitive cell.
 

 Routine SETGRP: Setting up the symmetry group for a 
 hexagonal supercell.


 Subroutine GETGRP returns: Found  1 space group operations
 (whereof  1 operations were pure point group operations)
 out of a pool of 24 trial point group operations.


The dynamic configuration has the point symmetry C_1 .


Analysis of constrained symmetry for selective dynamics:
=====================================================================
 Subroutine PRICEL returns:
 Original cell was already a primitive cell.
 

 Routine SETGRP: Setting up the symmetry group for a 
 hexagonal supercell.


 Subroutine GETGRP returns: Found  1 space group operations
 (whereof  1 operations were pure point group operations)
 out of a pool of 24 trial point group operations.


The constrained configuration has the point symmetry C_1 .


Analysis of magnetic symmetry:
=====================================================================
 Subroutine PRICEL returns:
 Original cell was already a primitive cell.
 

 Subroutine MAGSYM returns: Found  1 space group operations
 (whereof  1 operations were pure point group operations)
 out of a pool of  1 trial space group operations
 (whereof  1 operations were pure point group operations)
 and found also     1 'primitive' translations


The magnetic configuration has the point symmetry C_1 .
 
 
 KPOINTS: kpoints                                 

Automatic generation of k-mesh.
Space group operators:
 irot       det(A)        alpha          n_x          n_y          n_z        tau_x        tau_y        tau_z
    1     1.000000     0.000001     1.000000     0.000000     0.000000     0.000000     0.000000     0.000000
 
 Subroutine IBZKPT returns following result:
 ===========================================
 
 Found      5 irreducible k-points:
 
 Following reciprocal coordinates:
            Coordinates               Weight
  0.000000  0.000000  0.000000      1.000000
  0.333333 -0.000000  0.000000      2.000000
  0.000000  0.333333  0.000000      2.000000
  0.333333  0.333333  0.000000      2.000000
 -0.333333  0.333333  0.000000      2.000000
 
 Following cartesian coordinates:
            Coordinates               Weight
  0.000000  0.000000  0.000000      1.000000
  0.032580  0.018810  0.000000      2.000000
  0.000000  0.037620  0.000000      2.000000
  0.032580  0.056429  0.000000      2.000000
 -0.032580  0.018810  0.000000      2.000000
 


--------------------------------------------------------------------------------------------------------




 Dimension of arrays:
   k-points           NKPTS =      5   k-points in BZ     NKDIM =      5   number of bands    NBANDS=    672
   number of dos      NEDOS =    301   number of ions     NIONS =    125
   non local maximal  LDIM  =      6   non local SUM 2l+1 LMDIM =     18
   total plane-waves  NPLWV = 756000
   max r-space proj   IRMAX =   2632   max aug-charges    IRDMAX=   6801
   dimension x,y,z NGX =    60 NGY =   60 NGZ =  210
   dimension x,y,z NGXF=   120 NGYF=  120 NGZF=  420
   support grid    NGXF=   120 NGYF=  120 NGZF=  420
   ions per type =              48  72   1   4
 NGX,Y,Z   is equivalent  to a cutoff of   9.75,  9.75,  9.33 a.u.
 NGXF,Y,Z  is equivalent  to a cutoff of  19.50, 19.50, 18.66 a.u.


 I would recommend the setting:
   dimension x,y,z NGX =    57 NGY =   57 NGZ =  209
 SYSTEM =  fe2O3 (0001) surface scan               
 POSCAR =   hematite with methane                  

 Startparameter for this run:
   NWRITE =      2    write-flag & timer
   PREC   = normal    normal or accurate (medium, high low for compatibility)
   ISTART =      0    job   : 0-new  1-cont  2-samecut
   ICHARG =      2    charge: 1-file 2-atom 10-const
   ISPIN  =      2    spin polarized calculation?
   LNONCOLLINEAR =      F non collinear calculations
   LSORBIT =      F    spin-orbit coupling
   INIWAV =      1    electr: 0-lowe 1-rand  2-diag
   LASPH  =      T    aspherical Exc in radial PAW
   METAGGA=      F    non-selfconsistent MetaGGA calc.

 Electronic Relaxation 1
   ENCUT  =  520.0 eV  38.22 Ry    6.18 a.u.  19.02 19.02 69.56*2*pi/ulx,y,z
   ENINI  =  520.0     initial cutoff
   ENAUG  =  644.9 eV  augmentation charge cutoff
   NELM   =     30;   NELMIN=  5; NELMDL= -5     # of ELM steps 
   EDIFF  = 0.1E-04   stopping-criterion for ELM
   LREAL  =      T    real-space projection
   NLSPLINE    = F    spline interpolate recip. space projectors
   LCOMPAT=      F    compatible to vasp.4.4
   GGA_COMPAT  = T    GGA compatible to vasp.4.4-vasp.4.6
   LMAXPAW     = -100 max onsite density
   LMAXMIX     =    4 max onsite mixed and CHGCAR
   VOSKOWN=      1    Vosko Wilk Nusair interpolation
   ROPT   =   -0.00050  -0.00050  -0.00050  -0.00050
 Ionic relaxation
   EDIFFG = -.2E-01   stopping-criterion for IOM
   NSW    =      1    number of steps for IOM
   NBLOCK =      1;   KBLOCK =      1    inner block; outer block 
   IBRION =      2    ionic relax: 0-MD 1-quasi-New 2-CG
   NFREE  =      1    steps in history (QN), initial steepest desc. (CG)
   ISIF   =      2    stress and relaxation
   IWAVPR =     11    prediction:  0-non 1-charg 2-wave 3-comb
   ISYM   =      2    0-nonsym 1-usesym 2-fastsym
   LCORR  =      T    Harris-Foulkes like correction to forces

   POTIM  = 0.0050    time-step for ionic-motion
   TEIN   =    0.0    initial temperature
   TEBEG  =    0.0;   TEEND  =   0.0 temperature during run
   SMASS  =  -3.00    Nose mass-parameter (am)
   estimated Nose-frequenzy (Omega)   =  0.10E-29 period in steps =****** mass=  -0.239E-26a.u.
   SCALEE = 1.0000    scale energy and forces
   NPACO  =    256;   APACO  = 16.0  distance and # of slots for P.C.
   PSTRESS=    0.0 pullay stress

  Mass of Ions in am
   POMASS =  55.85 16.00 12.01  1.00
  Ionic Valenz
   ZVAL   =  14.00  6.00  4.00  1.00
  Atomic Wigner-Seitz radii
   RWIGS  =  -1.00 -1.00 -1.00 -1.00
  virtual crystal weights 
   VCA    =   1.00  1.00  1.00  1.00
   NELECT =    1112.0000    total number of electrons
   NUPDOWN=       0.0000    fix difference up-down

 DOS related values:
   EMIN   =  10.00;   EMAX   =-10.00  energy-range for DOS
   EFERMI =   0.00
   ISMEAR =     0;   SIGMA  =   0.10  broadening in eV -4-tet -1-fermi 0-gaus

 Electronic relaxation 2 (details)
   IALGO  =     68    algorithm
   LDIAG  =      T    sub-space diagonalisation (order eigenvalues)
   LSUBROT=      F    optimize rotation matrix (better conditioning)
   TURBO    =      0    0=normal 1=particle mesh
   IRESTART =      0    0=no restart 2=restart with 2 vectors
   NREBOOT  =      0    no. of reboots
   NMIN     =      0    reboot dimension
   EREF     =   0.00    reference energy to select bands
   IMIX   =      4    mixing-type and parameters
     AMIX     =   0.01;   BMIX     =  0.00
     AMIX_MAG =   0.80;   BMIX_MAG =  0.00
     AMIN     =   0.01
     WC   =   100.;   INIMIX=   1;  MIXPRE=   1;  MAXMIX=  30

 Intra band minimization:
   WEIMIN = 0.0010     energy-eigenvalue tresh-hold
   EBREAK =  0.37E-08  absolut break condition
   DEPER  =   0.30     relativ break condition  

   TIME   =   0.40     timestep for ELM

  volume/ion in A,a.u.               =      27.13       183.10
  Fermi-wavevector in a.u.,A,eV,Ry     =   1.128868  2.133251 17.338481  1.274342
  Thomas-Fermi vector in A             =   2.265559
 
 Write flags
   LWAVE  =      F    write WAVECAR
   LCHARG =      F    write CHGCAR
   LVTOT  =      F    write LOCPOT, total local potential
   LVHAR  =      F    write LOCPOT, Hartree potential only
   LELF   =      F    write electronic localiz. function (ELF)
   LORBIT =      0    0 simple, 1 ext, 2 COOP (PROOUT)


 Dipole corrections
   LMONO  =      F    monopole corrections only (constant potential shift)
   LDIPOL =      T    correct potential (dipole corrections)
   IDIPOL =      3    1-x, 2-y, 3-z, 4-all directions 
   EPSILON=  1.0000000 bulk dielectric constant

 LDA+U is selected, type is set to LDAUTYPE =  2
   angular momentum for each species LDAUL =     2    1    1    0
   U (eV)           for each species LDAUU =   4.2  0.0  0.0  0.0
   J (eV)           for each species LDAUJ =   0.0  0.0  0.0  0.0
 Exchange correlation treatment:
   GGA     =    --    GGA type
   LEXCH   =     8    internal setting for exchange type
   VOSKOWN=      1    Vosko Wilk Nusair interpolation
   LHFCALC =     F    Hartree Fock is set to
   LHFONE  =     F    Hartree Fock one center treatment
   AEXX    =    0.0000 exact exchange contribution

 Linear response parameters
   LEPSILON=     F    determine dielectric tensor
   LRPA    =     F    only Hartree local field effects (RPA)
   LNABLA  =     F    use nabla operator in PAW spheres
   LVEL    =     F    velocity operator in full k-point grid
   LINTERFAST=   F  fast interpolation
   KINTER  =     0    interpolate to denser k-point grid
   CSHIFT  =0.1000    complex shift for real part using Kramers Kronig
   OMEGAMAX=  -1.0    maximum frequency
   DEG_THRESHOLD= 0.2000000E-02 threshold for treating states as degnerate
   RTIME   =    0.100 relaxation time in fs

 Orbital magnetization related:
   ORBITALMAG=     F  switch on orbital magnetization
   LCHIMAG   =     F  perturbation theory with respect to B field
   DQ        =  0.001000  dq finite difference perturbation B field



--------------------------------------------------------------------------------------------------------


 conjugate gradient relaxation of ions
   using selective dynamics as specified on POSCAR
 charge density and potential will be updated during run
 spin polarized calculation
 RMM-DIIS sequential band-by-band and
  variant of blocked Davidson during initial phase
 perform sub-space diagonalisation
    before iterative eigenvector-optimisation
 modified Broyden-mixing scheme, WC =      100.0
 initial mixing is a Kerker type mixing with AMIX =  0.0100 and BMIX =      0.0001
 Hartree-type preconditioning will be used
 using additional bands          116
 real space projection scheme for non local part
 use partial core corrections
 calculate Harris-corrections to forces 
   (improved forces if not selfconsistent)
 use gradient corrections 
 use of overlap-Matrix (Vanderbilt PP)
 Gauss-broadening in eV      SIGMA  =   0.10


--------------------------------------------------------------------------------------------------------


  energy-cutoff  :      520.00
  volume of cell :     3391.56
      direct lattice vectors                 reciprocal lattice vectors
    10.231375098  0.000000000  0.000000000     0.097738573  0.056429391  0.000000000
    -5.115687549  8.860630751  0.000000000     0.000000000  0.112858783  0.000000000
     0.000000000  0.000000000 37.411182405     0.000000000  0.000000000  0.026729976

  length of vectors
    10.231375098 10.231375098 37.411182405     0.112858783  0.112858783  0.026729976


 
 k-points in units of 2pi/SCALE and weight: kpoints                                 
   0.00000000  0.00000000  0.00000000       0.111
   0.03257952  0.01880980  0.00000000       0.222
   0.00000000  0.03761959  0.00000000       0.222
   0.03257952  0.05642939  0.00000000       0.222
  -0.03257952  0.01880980  0.00000000       0.222
 
 k-points in reciprocal lattice and weights: kpoints                                 
   0.00000000  0.00000000  0.00000000       0.111
   0.33333333 -0.00000000  0.00000000       0.222
   0.00000000  0.33333333  0.00000000       0.222
   0.33333333  0.33333333  0.00000000       0.222
  -0.33333333  0.33333333  0.00000000       0.222
 
 position of ions in fractional coordinates (direct lattice) 
   0.02662058  0.04434302  0.13898023
   0.02658505  0.04432931  0.24735246
   0.02637130  0.04416280  0.06318877
   0.03232280  0.04696106  0.32346864
   0.36061916  0.21249802  0.26306613
   0.36256591  0.19968620  0.36833428
   0.35970103  0.21100965  0.18518719
   0.35970236  0.21087675  0.07287787
   0.19306755  0.37751105  0.03239755
   0.19307634  0.37743136  0.12396891
   0.18613664  0.37536004  0.31084405
   0.19308763  0.37722345  0.20130091
   0.52638337  0.04470830  0.13880760
   0.52455146  0.04608204  0.24772202
   0.52642809  0.04417191  0.06309632
   0.52775448  0.05025127  0.32401632
   0.85669963  0.20743463  0.26210342
   0.86196027  0.21152792  0.35621220
   0.86004889  0.21120468  0.18484860
   0.85969118  0.21082310  0.07286484
   0.69308555  0.37756771  0.03236416
   0.69306164  0.37758763  0.12400224
   0.69211091  0.37626240  0.31424201
   0.69317995  0.37775940  0.20112203
   0.02610832  0.54407498  0.13876383
   0.02386726  0.54116258  0.24757057
   0.02643522  0.54422607  0.06307468
   0.02712369  0.54556588  0.32402831
   0.36017212  0.71104882  0.25964155
   0.36229922  0.71584755  0.33618814
   0.35984552  0.71105974  0.18384078
   0.35973608  0.71086541  0.07282603
   0.19305644  0.87757216  0.03241350
   0.19305256  0.87769396  0.12403437
   0.19699344  0.88560694  0.31442880
   0.19318385  0.87817861  0.20143227
   0.52695626  0.54428452  0.13880812
   0.52945868  0.54514482  0.24718926
   0.52634888  0.54415665  0.06308542
   0.53500029  0.54869556  0.32267456
   0.86340082  0.71227230  0.26268043
   0.86338533  0.71414249  0.35688773
   0.85998181  0.71111883  0.18504688
   0.85977045  0.71089112  0.07288118
   0.69308065  0.87754702  0.03239930
   0.69325261  0.87765228  0.12398687
   0.69795830  0.88002442  0.31407685
   0.69392367  0.87814512  0.20135688
   0.18182024  0.04427073  0.09993959
   0.37319848  0.04455217  0.28532874
   0.02652123  0.19965698  0.09989007
   0.02434831  0.38858531  0.28532098
   0.37090277  0.38879770  0.09980877
   0.18197184  0.20230214  0.28567582
   0.01164338  0.20977129  0.22368144
   0.19951929  0.20497522  0.03866028
   0.36119066  0.36597880  0.22419369
   0.36552295  0.05661122  0.03866265
   0.20714209  0.05927580  0.22393618
   0.01400232  0.37091309  0.03863445
   0.35510617  0.38302903  0.35089996
   0.04033901  0.37829133  0.16211918
   0.19325394  0.03840558  0.34706665
   0.19259958  0.22451134  0.16230577
   0.04074280  0.22027861  0.34714235
   0.34662863  0.03070527  0.16224472
   0.68191583  0.04421230  0.09982256
   0.87206569  0.04397054  0.28609568
   0.52668741  0.19983714  0.09984047
   0.52627109  0.39242725  0.28679155
   0.87079683  0.38889923  0.09983932
   0.68033016  0.19869176  0.28609950
   0.51261488  0.21184295  0.22400396
   0.69959193  0.20505527  0.03860884
   0.85964044  0.36336717  0.22368562
   0.86557487  0.05654567  0.03867216
   0.70438848  0.05665576  0.22434590
   0.51402398  0.37092557  0.03862731
   0.85462524  0.38244890  0.34772461
   0.54050315  0.37846532  0.16228157
   0.69110243  0.03522703  0.34720384
   0.69235872  0.22418912  0.16222365
   0.53796592  0.22122584  0.34726201
   0.84635553  0.03028148  0.16225873
   0.18185474  0.54410180  0.09981320
   0.37023865  0.54725759  0.28711401
   0.02663029  0.69985505  0.09981010
   0.02936050  0.89140012  0.28619956
   0.37080703  0.88889368  0.09983701
   0.19125006  0.70184557  0.28816982
   0.01443948  0.71035270  0.22440724
   0.19957521  0.70502091  0.03858093
   0.36146097  0.86482563  0.22348755
   0.36557645  0.55658847  0.03859741
   0.20548291  0.55795234  0.22361939
   0.01401929  0.87097820  0.03867675
   0.35502587  0.88733476  0.34736319
   0.04066830  0.87832049  0.16234505
   0.19197133  0.53034886  0.34627134
   0.19229635  0.72438936  0.16201003
   0.03935164  0.71888909  0.34778975
   0.34645379  0.53013693  0.16196761
   0.68181930  0.54408646  0.09987009
   0.87418906  0.54462559  0.28639173
   0.52674083  0.69982719  0.09980618
   0.52080125  0.87977388  0.28808324
   0.87099627  0.88886822  0.09989789
   0.68411503  0.70061417  0.28596803
   0.51304774  0.70954572  0.22345201
   0.69961843  0.70504857  0.03863770
   0.86122878  0.86416861  0.22385766
   0.86553253  0.55659652  0.03863714
   0.70812735  0.55858342  0.22399195
   0.51399763  0.87096653  0.03860677
   0.85713619  0.88514467  0.34783657
   0.54078327  0.87855541  0.16197699
   0.69274803  0.53591015  0.34776714
   0.69283967  0.72426793  0.16220368
   0.53947156  0.71631839  0.34678531
   0.84673850  0.53065279  0.16221471
   0.35998949  0.19991701  0.42284397
   0.35832387  0.09769893  0.43252569
   0.32196455  0.42687202  0.36962570
   0.25849034  0.20013516  0.43245384
   0.46147847  0.30030387  0.43290905
 
 position of ions in cartesian coordinates  (Angst):
   0.04552012  0.39290716  5.19941482
   0.04522670  0.39278562  9.25374796
   0.04389162  0.39131026  2.36396654
   0.09046853  0.41610461 12.10134428
   2.60255646  1.88286650  9.84161485
   2.68801563  1.76934572 13.77982097
   2.60077674  1.86967856  6.92807159
   2.60147024  1.86850099  2.72644738
   0.04411794  3.34498599  1.21203078
   0.04461560  3.34427990  4.63782342
  -0.01579084  3.32592667 11.62904336
   0.04579468  3.34243772  7.53090506
   5.15691202  0.39614371  5.19295641
   5.13114144  0.40831591  9.26757359
   5.16011353  0.39139095  2.36050799
   5.14258427  0.44525791 12.12183384
   7.70404450  1.83800166  9.80559899
   7.73692813  1.87427080 13.32631949
   7.71902566  1.87140665  6.91540465
   7.71731787  1.86802564  2.72595975
   5.15969983  3.34548805  1.21078160
   5.15935332  3.34566453  4.63907053
   5.15640546  3.33392223 11.75616518
   5.15968501  3.34718653  7.52421300
  -2.51619362  4.82084748  5.19131899
  -2.52422379  4.79504180  9.26190766
  -2.51362189  4.82218622  2.35969854
  -2.51343190  4.83405780 12.12228232
   0.04755244  6.30034103  9.71349756
   0.04476685  6.34286077 12.57719578
   0.04415497  6.30043784  6.87770101
   0.04402941  6.29871594  2.72450807
  -2.51415209  7.77584289  1.21262744
  -2.51481489  7.77692206  4.64027252
  -2.51497465  7.84703613 11.76315302
  -2.51595094  7.78121639  7.53581943
   2.60709762  4.82270418  5.19297574
   2.62829976  4.83032695  9.24764232
   2.60153740  4.82157119  2.36010003
   2.66683365  4.86178874 12.07163682
   5.19001513  6.31118184  9.82718530
   5.18028929  6.32775293 13.35159190
   5.16093472  6.30096138  6.92282263
   5.15993717  6.29894368  2.72657129
   2.60191171  7.77562011  1.21209609
   2.60313265  7.77655279  4.63849544
   2.63914321  7.79757143 11.74998642
   2.60747728  7.78091967  7.53299894
   1.63379583  0.39226659  3.73885837
   3.59041871  0.39476031 10.67448567
  -0.75003407  1.76908681  3.73700549
  -1.73876432  3.44311093 10.67419541
   1.80587786  3.44499282  3.73396416
   0.82690759  1.79252460 10.68747024
  -0.95399655  1.85870595  8.36818729
   0.99276755  1.81620971  1.44632682
   1.82324394  3.24280298  8.38735120
   3.45019715  0.50161111  1.44641546
   1.81611198  0.52522099  8.37771723
  -1.75421252  3.28652389  1.44536030
   1.67376763  3.39387876 13.12758223
  -1.52249670  3.35189981  6.06507032
   1.78078262  0.34029763 12.98417357
   0.82202865  1.98931206  6.07205083
  -0.71002170  1.95180739 12.98700592
   3.38940891  0.27206807  6.06976670
   6.75076029  0.39174891  3.73447987
   8.69749167  0.38960670 10.70317775
   4.36643207  1.77068313  3.73515001
   3.37694173  3.47715300 10.72921103
   6.91996205  3.44589248  3.73510693
   5.94426813  1.76053433 10.70332068
   4.16103273  1.87706219  8.38025290
   6.10878876  1.81691901  1.44440241
   6.93643086  3.21966229  8.36834366
   8.56675117  0.50103032  1.44677109
   6.91702963  0.50200576  8.39304524
   3.36163285  3.28663452  1.44509341
   6.78750238  3.38873847 13.00878867
   3.59398009  3.35344147  6.07114557
   6.89071772  0.31213367 12.98930616
   5.93690025  1.98645701  6.06897859
   4.37240889  1.96020046 12.99148239
   8.50447028  0.26831305  6.07029109
  -0.92283072  4.82108510  3.73413000
   0.98845166  4.84904746 10.74127454
  -3.30777527  6.20115713  3.73401392
  -4.25972616  7.89836730 10.70706383
  -0.75343648  7.87615868  3.73502046
  -1.63367155  6.21879446 10.78077382
  -3.48620673  6.29417302  8.39534009
  -1.56473781  6.24692995  1.44335818
  -0.72593490  7.66290055  8.36093338
   0.89301707  4.93172488  1.44397475
  -0.75193708  4.94380962  8.36586570
  -4.31221577  7.71741624  1.44694279
  -0.90692452  7.86234565 12.99526761
  -4.07712060  7.78247357  6.07352032
  -0.74896833  4.69922540 12.95442008
  -1.73829358  6.41854663  6.06098680
  -3.27499055  6.36981078 13.01122592
   0.83268384  4.69734757  6.05939973
   4.19257266  4.82094922  3.73625810
   6.15802178  4.82572625 10.71425328
   1.80918573  6.20091034  3.73386711
   0.82786462  7.79535148 10.77753466
   4.36431745  7.87593307  3.73729818
   3.41531430  6.20788343 10.69840207
   1.61936965  6.28702259  8.35960399
   3.55125037  6.24717507  1.44548186
   4.39073806  7.65707900  8.37477974
   6.00821408  4.93179627  1.44546103
   4.38757829  4.94940144  8.37980364
   0.80330993  7.71731281  1.44432502
   4.24155830  7.84294007 13.01297742
   1.03854147  7.78455508  6.05975087
   4.34621601  4.74850198 13.01037993
   3.38357411  6.41747066  6.06823128
   1.85507486  6.34703274 12.97364842
   5.94864535  4.70191842  6.06864393
   2.66047452  1.77139081 15.81909288
   3.16634874  0.86567414 16.18129734
   1.11039620  3.78235537 13.82813434
   1.62088268  1.77332375 16.17860949
   3.18529858  2.66088166 16.19563955
 


--------------------------------------------------------------------------------------------------------


 k-point  1 :   0.0000 0.0000 0.0000  plane waves:   91045
 k-point  2 :   0.3333-0.0000 0.0000  plane waves:   91327
 k-point  3 :   0.0000 0.3333 0.0000  plane waves:   91327
 k-point  4 :   0.3333 0.3333 0.0000  plane waves:   91329
 k-point  5 :  -0.3333 0.3333 0.0000  plane waves:   91327

 maximum and minimum number of plane-waves per node :     91329    91045

 maximum number of plane-waves:     91329
 maximum index in each direction: 
   IXMAX=   19   IYMAX=   19   IZMAX=   69
   IXMIN=  -19   IYMIN=  -19   IZMIN=  -69

 WARNING: aliasing errors must be expected set NGX to  78 to avoid them
 WARNING: aliasing errors must be expected set NGY to  78 to avoid them
 WARNING: aliasing errors must be expected set NGZ to 278 to avoid them
 aliasing errors are usually negligible using standard VASP settings
 and one can safely disregard these warnings

 serial   3D FFT for wavefunctions
 parallel 3D FFT for charge:
    minimum data exchange during FFTs selected (reduces bandwidth)


 total amount of memory used by VASP on root node   576387. kBytes
========================================================================

   base      :      30000. kBytes
   nonlr-proj:      30113. kBytes
   fftplans  :      11616. kBytes
   grid      :      84883. kBytes
   one-center:       3888. kBytes
   wavefun   :     415887. kBytes
 
     INWAV:  cpu time    0.00: real time    0.00
 Broyden mixing: mesh for mixing (old mesh)
   NGX = 39   NGY = 39   NGZ =139
  (NGX  =120   NGY  =120   NGZ  =420)
  gives a total of 211419 points

 initial charge density was supplied:
 charge density of overlapping atoms calculated
 number of electron    1112.0000000 magnetization       0.0000000
 keeping initial charge density in first step


--------------------------------------------------------------------------------------------------------


 Maximum index for non-local projection operator         2516
 Maximum index for augmentation-charges          374 (set IRDMAX)


--------------------------------------------------------------------------------------------------------


 First call to EWALD:  gamma=   0.118
 Maximum number of real-space cells 4x 4x 1
 Maximum number of reciprocal cells 2x 2x 6

 FEWALD executed in parallel
    FEWALD:  cpu time    0.12: real time    0.12


----------------------------------------- Iteration    1(   1)  ---------------------------------------


    POTLOK:  cpu time    0.60: real time    0.60
    SETDIJ:  cpu time    0.95: real time    0.95
     EDDAV:  cpu time   34.89: real time   34.91
       DOS:  cpu time    0.09: real time    0.09
    --------------------------------------------
      LOOP:  cpu time   36.53: real time   36.61

 eigenvalue-minimisations  : 15312
 total energy-change (2. order) : 0.1378392E+05  (-0.6287118E+05)
 number of electron    1112.0000000 magnetization       0.0000000
 augmentation part     1112.0000000 magnetization       0.0000000

 DIPCOR: dipole corrections for dipol
 direction  3 min pos   318,
 dipolmoment           0.000000      0.000000      0.000929 electrons x Angstroem
 Tr[quadrupol]    -19382.233647

 energy correction for charged system         0.000000 eV
 dipol+quadrupol energy correction           -0.000000 eV
 added-field ion interaction          0.123704 eV  (added to PSCEN)


 Free energy of the ion-electron system (eV)
  ---------------------------------------------------
  alpha Z        PSCENC =      1965.80609095
  Ewald energy   TEWEN  =   1439145.87472221
  -Hartree energ DENC   =  -1570664.28240755
  -exchange      EXHF   =         0.00000000
  -V(xc)+E(xc)   XCENC  =      5460.22277033
  PAW double counting   =    121055.99823787  -125065.16812732
  entropy T*S    EENTRO =        -0.13702087
  eigenvalues    EBANDS =     -7397.31331426
  atomic energy  EATOM  =    149282.92348897
  ---------------------------------------------------
  free energy    TOTEN  =     13783.92444033 eV

  energy without entropy =    13784.06146119  energy(sigma->0) =    13783.99295076


--------------------------------------------------------------------------------------------------------




----------------------------------------- Iteration    1(   2)  ---------------------------------------


     EDDAV:  cpu time   33.55: real time   33.58
       DOS:  cpu time    0.02: real time    0.02
    --------------------------------------------
      LOOP:  cpu time   33.58: real time   33.60

 eigenvalue-minimisations  : 14592
 total energy-change (2. order) :-0.1252000E+05  (-0.1169882E+05)
 number of electron    1112.0000000 magnetization       0.0000000
 augmentation part     1112.0000000 magnetization       0.0000000

 DIPCOR: dipole corrections for dipol
 direction  3 min pos   318,
 dipolmoment           0.000000      0.000000      0.000929 electrons x Angstroem
 Tr[quadrupol]    -19382.233647

 energy correction for charged system         0.000000 eV
 dipol+quadrupol energy correction           -0.000000 eV
 added-field ion interaction          0.123704 eV  (added to PSCEN)


 Free energy of the ion-electron system (eV)
  ---------------------------------------------------
  alpha Z        PSCENC =      1965.80609095
  Ewald energy   TEWEN  =   1439145.87472221
  -Hartree energ DENC   =  -1570664.28240755
  -exchange      EXHF   =         0.00000000
  -V(xc)+E(xc)   XCENC  =      5460.22277033
  PAW double counting   =    121055.99823787  -125065.16812732
  entropy T*S    EENTRO =        -0.29388892
  eigenvalues    EBANDS =    -19917.15949241
  atomic energy  EATOM  =    149282.92348897
  ---------------------------------------------------
  free energy    TOTEN  =      1263.92139413 eV

  energy without entropy =     1264.21528305  energy(sigma->0) =     1264.06833859


--------------------------------------------------------------------------------------------------------




----------------------------------------- Iteration    1(   3)  ---------------------------------------


     EDDAV:  cpu time   37.76: real time   37.78
       DOS:  cpu time    0.02: real time    0.02
    --------------------------------------------
      LOOP:  cpu time   37.78: real time   37.83

 eigenvalue-minimisations  : 16752
 total energy-change (2. order) :-0.2187545E+04  (-0.2124867E+04)
 number of electron    1112.0000000 magnetization       0.0000000
 augmentation part     1112.0000000 magnetization       0.0000000

 DIPCOR: dipole corrections for dipol
 direction  3 min pos   318,
 dipolmoment           0.000000      0.000000      0.000929 electrons x Angstroem
 Tr[quadrupol]    -19382.233647

 energy correction for charged system         0.000000 eV
 dipol+quadrupol energy correction           -0.000000 eV
 added-field ion interaction          0.123704 eV  (added to PSCEN)


 Free energy of the ion-electron system (eV)
  ---------------------------------------------------
  alpha Z        PSCENC =      1965.80609095
  Ewald energy   TEWEN  =   1439145.87472221
  -Hartree energ DENC   =  -1570664.28240755
  -exchange      EXHF   =         0.00000000
  -V(xc)+E(xc)   XCENC  =      5460.22277033
  PAW double counting   =    121055.99823787  -125065.16812732
  entropy T*S    EENTRO =        -0.00000000
  eigenvalues    EBANDS =    -22104.99794285
  atomic energy  EATOM  =    149282.92348897
  ---------------------------------------------------
  free energy    TOTEN  =      -923.62316740 eV

  energy without entropy =     -923.62316740  energy(sigma->0) =     -923.62316740


--------------------------------------------------------------------------------------------------------




----------------------------------------- Iteration    1(   4)  ---------------------------------------


     EDDAV:  cpu time   35.82: real time   35.84
       DOS:  cpu time    0.02: real time    0.02
    --------------------------------------------
      LOOP:  cpu time   35.84: real time   35.90

 eigenvalue-minimisations  : 15672
 total energy-change (2. order) :-0.1388311E+03  (-0.1380662E+03)
 number of electron    1112.0000000 magnetization       0.0000000
 augmentation part     1112.0000000 magnetization       0.0000000

 DIPCOR: dipole corrections for dipol
 direction  3 min pos   318,
 dipolmoment           0.000000      0.000000      0.000929 electrons x Angstroem
 Tr[quadrupol]    -19382.233647

 energy correction for charged system         0.000000 eV
 dipol+quadrupol energy correction           -0.000000 eV
 added-field ion interaction          0.123704 eV  (added to PSCEN)


 Free energy of the ion-electron system (eV)
  ---------------------------------------------------
  alpha Z        PSCENC =      1965.80609095
  Ewald energy   TEWEN  =   1439145.87472221
  -Hartree energ DENC   =  -1570664.28240755
  -exchange      EXHF   =         0.00000000
  -V(xc)+E(xc)   XCENC  =      5460.22277033
  PAW double counting   =    121055.99823787  -125065.16812732
  entropy T*S    EENTRO =        -0.00000000
  eigenvalues    EBANDS =    -22243.82902868
  atomic energy  EATOM  =    149282.92348897
  ---------------------------------------------------
  free energy    TOTEN  =     -1062.45425322 eV

  energy without entropy =    -1062.45425322  energy(sigma->0) =    -1062.45425322


--------------------------------------------------------------------------------------------------------




----------------------------------------- Iteration    1(   5)  ---------------------------------------


     EDDAV:  cpu time   39.90: real time   39.93
       DOS:  cpu time    0.02: real time    0.02
    CHARGE:  cpu time    1.64: real time    1.64
    MIXING:  cpu time    0.01: real time    0.01
    --------------------------------------------
      LOOP:  cpu time   41.58: real time   41.62

 eigenvalue-minimisations  : 17808
 total energy-change (2. order) :-0.3590215E+01  (-0.3581435E+01)
 number of electron    1112.0000507 magnetization      -0.0000158
 augmentation part      431.4456600 magnetization      -0.9331533

 DIPCOR: dipole corrections for dipol
 direction  3 min pos   318,
 dipolmoment           0.000000      0.000000      0.000929 electrons x Angstroem
 Tr[quadrupol]    -19382.233647

 energy correction for charged system         0.000000 eV
 dipol+quadrupol energy correction           -0.000000 eV
 added-field ion interaction          0.123704 eV  (added to PSCEN)


 Broyden mixing:
  rms(total) = 0.16556E+02    rms(broyden)= 0.16555E+02
  rms(prec ) = 0.16765E+02
  weight for this iteration     100.00

 Free energy of the ion-electron system (eV)
  ---------------------------------------------------
  alpha Z        PSCENC =      1965.80609095
  Ewald energy   TEWEN  =   1439145.87472221
  -Hartree energ DENC   =  -1570664.28240755
  -exchange      EXHF   =         0.00000000
  -V(xc)+E(xc)   XCENC  =      5460.22277033
  PAW double counting   =    121055.99823787  -125065.16812732
  entropy T*S    EENTRO =        -0.00000000
  eigenvalues    EBANDS =    -22247.41924349
  atomic energy  EATOM  =    149282.92348897
  ---------------------------------------------------
  free energy    TOTEN  =     -1066.04446804 eV

  energy without entropy =    -1066.04446804  energy(sigma->0) =    -1066.04446804


--------------------------------------------------------------------------------------------------------




----------------------------------------- Iteration    1(   6)  ---------------------------------------


    POTLOK:  cpu time    0.55: real time    0.55
    SETDIJ:  cpu time    0.99: real time    0.99
    EDDIAG:  cpu time    6.33: real time    6.33
  RMM-DIIS:  cpu time   15.40: real time   15.42
    ORTHCH:  cpu time    2.07: real time    2.07
       DOS:  cpu time    0.04: real time    0.03
    CHARGE:  cpu time    1.63: real time    1.63
    MIXING:  cpu time    0.01: real time    0.01
    --------------------------------------------
      LOOP:  cpu time   27.02: real time   27.06

 eigenvalue-minimisations  : 14282
 total energy-change (2. order) :-0.7676772E+02  (-0.3977231E+01)
 number of electron    1112.0000509 magnetization      -0.0000202
 augmentation part      433.0560845 magnetization      -0.8914621

 DIPCOR: dipole corrections for dipol
 direction  3 min pos   306,
 dipolmoment           0.000000      0.000000      0.015465 electrons x Angstroem
 Tr[quadrupol]    -19382.274388

 energy correction for charged system         0.000000 eV
 dipol+quadrupol energy correction           -0.000006 eV
 added-field ion interaction          1.078633 eV  (added to PSCEN)


 Broyden mixing:
  rms(total) = 0.15893E+02    rms(broyden)= 0.15893E+02
  rms(prec ) = 0.16103E+02
  weight for this iteration     100.00

 eigenvalues of (default mixing * dielectric matrix)
  average eigenvalue GAMMA=   1.5644
  1.5644

 Free energy of the ion-electron system (eV)
  ---------------------------------------------------
  alpha Z        PSCENC =      1966.76101365
  Ewald energy   TEWEN  =   1439145.87472221
  -Hartree energ DENC   =  -1570613.16032883
  -exchange      EXHF   =         0.00000000
  -V(xc)+E(xc)   XCENC  =      5486.58121357
  PAW double counting   =    121090.47112111  -124973.80240234
  entropy T*S    EENTRO =        -0.00000000
  eigenvalues    EBANDS =    -22528.46101652
  atomic energy  EATOM  =    149282.92348897
  ---------------------------------------------------
  free energy    TOTEN  =     -1142.81218818 eV

  energy without entropy =    -1142.81218818  energy(sigma->0) =    -1142.81218818


--------------------------------------------------------------------------------------------------------




----------------------------------------- Iteration    1(   7)  ---------------------------------------


    POTLOK:  cpu time    0.55: real time    0.55
    SETDIJ:  cpu time    0.94: real time    0.94
    EDDIAG:  cpu time    6.31: real time    6.31
  RMM-DIIS:  cpu time   17.61: real time   17.63
    ORTHCH:  cpu time    2.06: real time    2.07
       DOS:  cpu time    0.01: real time    0.01
    CHARGE:  cpu time    1.62: real time    1.62
    MIXING:  cpu time    0.01: real time    0.01
    --------------------------------------------
      LOOP:  cpu time   29.13: real time   29.17

 eigenvalue-minimisations  : 15963
 total energy-change (2. order) : 0.1725441E+02  (-0.1406457E+01)
 number of electron    1112.0000507 magnetization      -0.0000132
 augmentation part      434.0092756 magnetization      -0.8417912

 DIPCOR: dipole corrections for dipol
 direction  3 min pos   300,
 dipolmoment           0.000000      0.000000      0.033764 electrons x Angstroem
 Tr[quadrupol]    -19382.325175

 energy correction for charged system         0.000000 eV
 dipol+quadrupol energy correction           -0.000030 eV
 added-field ion interaction          1.284409 eV  (added to PSCEN)


 Broyden mixing:
  rms(total) = 0.15722E+02    rms(broyden)= 0.15722E+02
  rms(prec ) = 0.15921E+02
  weight for this iteration     100.00

 eigenvalues of (default mixing * dielectric matrix)
  average eigenvalue GAMMA=   1.5829
  1.3496  1.8161

 Free energy of the ion-electron system (eV)
  ---------------------------------------------------
  alpha Z        PSCENC =      1966.96676589
  Ewald energy   TEWEN  =   1439145.87472221
  -Hartree energ DENC   =  -1570551.11158356
  -exchange      EXHF   =         0.00000000
  -V(xc)+E(xc)   XCENC  =      5500.05594844
  PAW double counting   =    121127.17624984  -124948.45500419
  entropy T*S    EENTRO =        -0.00000000
  eigenvalues    EBANDS =    -22648.98837056
  atomic energy  EATOM  =    149282.92348897
  ---------------------------------------------------
  free energy    TOTEN  =     -1125.55778295 eV

  energy without entropy =    -1125.55778295  energy(sigma->0) =    -1125.55778295


--------------------------------------------------------------------------------------------------------




----------------------------------------- Iteration    1(   8)  ---------------------------------------


    POTLOK:  cpu time    0.55: real time    0.55
    SETDIJ:  cpu time    0.96: real time    0.96
    EDDIAG:  cpu time    6.30: real time    6.31
  RMM-DIIS:  cpu time   17.59: real time   17.60
    ORTHCH:  cpu time    2.07: real time    2.07
       DOS:  cpu time    0.01: real time    0.01
    CHARGE:  cpu time    1.62: real time    1.62
    MIXING:  cpu time    0.02: real time    0.01
    --------------------------------------------
      LOOP:  cpu time   29.13: real time   29.16

 eigenvalue-minimisations  : 16160
 total energy-change (2. order) : 0.1776333E+03  (-0.2282233E+02)
 number of electron    1112.0000468 magnetization      -0.0000177
 augmentation part      437.6863093 magnetization      -0.6401584

 DIPCOR: dipole corrections for dipol
 direction  3 min pos   297,
 dipolmoment           0.000000      0.000000      0.181134 electrons x Angstroem
 Tr[quadrupol]    -19383.061493

 energy correction for charged system         0.000000 eV
 dipol+quadrupol energy correction           -0.000875 eV
 added-field ion interaction          4.018650 eV  (added to PSCEN)


 Broyden mixing:
  rms(total) = 0.14591E+02    rms(broyden)= 0.14591E+02
  rms(prec ) = 0.14696E+02
  weight for this iteration     100.00

 eigenvalues of (default mixing * dielectric matrix)
  average eigenvalue GAMMA=   2.3394
  4.4601  1.2384  1.3197

 Free energy of the ion-electron system (eV)
  ---------------------------------------------------
  alpha Z        PSCENC =      1969.70016230
  Ewald energy   TEWEN  =   1439145.87472221
  -Hartree energ DENC   =  -1570081.81543134
  -exchange      EXHF   =         0.00000000
  -V(xc)+E(xc)   XCENC  =      5491.78600025
  PAW double counting   =    122269.70496229  -126150.06723720
  entropy T*S    EENTRO =        -0.00000000
  eigenvalues    EBANDS =    -22876.03117033
  atomic energy  EATOM  =    149282.92348897
  ---------------------------------------------------
  free energy    TOTEN  =      -947.92450284 eV

  energy without entropy =     -947.92450284  energy(sigma->0) =     -947.92450284


--------------------------------------------------------------------------------------------------------




----------------------------------------- Iteration    1(   9)  ---------------------------------------


    POTLOK:  cpu time    0.55: real time    0.55
    SETDIJ:  cpu time    0.96: real time    0.97
    EDDIAG:  cpu time    6.31: real time    6.31
  RMM-DIIS:  cpu time   17.63: real time   17.64
    ORTHCH:  cpu time    2.07: real time    2.07
       DOS:  cpu time    0.01: real time    0.01
    CHARGE:  cpu time    1.63: real time    1.63
    MIXING:  cpu time    0.02: real time    0.01
    --------------------------------------------
      LOOP:  cpu time   29.18: real time   29.21

 eigenvalue-minimisations  : 16159
 total energy-change (2. order) : 0.8192823E+02  (-0.1689437E+02)
 number of electron    1112.0000430 magnetization      -0.0000188
 augmentation part      441.4344655 magnetization      -0.6774206

 DIPCOR: dipole corrections for dipol
 direction  3 min pos   295,
 dipolmoment           0.000000      0.000000      0.303611 electrons x Angstroem
 Tr[quadrupol]    -19383.509216

 energy correction for charged system         0.000000 eV
 dipol+quadrupol energy correction           -0.002459 eV
 added-field ion interaction          3.526938 eV  (added to PSCEN)


 Broyden mixing:
  rms(total) = 0.14039E+02    rms(broyden)= 0.14039E+02
  rms(prec ) = 0.14079E+02
  weight for this iteration     100.00

 eigenvalues of (default mixing * dielectric matrix)
  average eigenvalue GAMMA=   4.1156
 12.9895  1.4081  1.2857  0.7792

 Free energy of the ion-electron system (eV)
  ---------------------------------------------------
  alpha Z        PSCENC =      1969.20686582
  Ewald energy   TEWEN  =   1439145.87472221
  -Hartree energ DENC   =  -1569721.63419057
  -exchange      EXHF   =         0.00000000
  -V(xc)+E(xc)   XCENC  =      5496.66345469
  PAW double counting   =    123289.53263491  -127122.88715526
  entropy T*S    EENTRO =        -0.00000000
  eigenvalues    EBANDS =    -23205.67609617
  atomic energy  EATOM  =    149282.92348897
  ---------------------------------------------------
  free energy    TOTEN  =      -865.99627540 eV

  energy without entropy =     -865.99627540  energy(sigma->0) =     -865.99627540


--------------------------------------------------------------------------------------------------------




----------------------------------------- Iteration    1(  10)  ---------------------------------------


    POTLOK:  cpu time    0.55: real time    0.55
    SETDIJ:  cpu time    0.94: real time    0.94
    EDDIAG:  cpu time    6.30: real time    6.30
  RMM-DIIS:  cpu time   19.95: real time   19.96
    ORTHCH:  cpu time    2.07: real time    2.07
       DOS:  cpu time    0.01: real time    0.01
    CHARGE:  cpu time    1.62: real time    1.63
    MIXING:  cpu time    0.02: real time    0.01
    --------------------------------------------
      LOOP:  cpu time   31.46: real time   31.52

 eigenvalue-minimisations  : 17894
 total energy-change (2. order) : 0.6874475E+01  (-0.1965429E+01)
 number of electron    1112.0000419 magnetization      -0.0000191
 augmentation part      441.9509085 magnetization      -0.7730709

 DIPCOR: dipole corrections for dipol
 direction  3 min pos   297,
 dipolmoment           0.000000      0.000000      0.317981 electrons x Angstroem
 Tr[quadrupol]    -19384.127510

 energy correction for charged system         0.000000 eV
 dipol+quadrupol energy correction           -0.002697 eV
 added-field ion interaction          7.054746 eV  (added to PSCEN)


 Broyden mixing:
  rms(total) = 0.13672E+02    rms(broyden)= 0.13671E+02
  rms(prec ) = 0.13703E+02
  weight for this iteration     100.00

 eigenvalues of (default mixing * dielectric matrix)
  average eigenvalue GAMMA=   5.1356
 19.7966  2.1404  1.5250  0.9690  1.2469

 Free energy of the ion-electron system (eV)
  ---------------------------------------------------
  alpha Z        PSCENC =      1972.73443565
  Ewald energy   TEWEN  =   1439145.87472221
  -Hartree energ DENC   =  -1569687.87083564
  -exchange      EXHF   =         0.00000000
  -V(xc)+E(xc)   XCENC  =      5492.32188026
  PAW double counting   =    123642.21124643  -127477.90286787
  entropy T*S    EENTRO =        -0.00000000
  eigenvalues    EBANDS =    -23229.41387024
  atomic energy  EATOM  =    149282.92348897
  ---------------------------------------------------
  free energy    TOTEN  =      -859.12180024 eV

  energy without entropy =     -859.12180024  energy(sigma->0) =     -859.12180024


--------------------------------------------------------------------------------------------------------




----------------------------------------- Iteration    1(  11)  ---------------------------------------


    POTLOK:  cpu time    0.56: real time    0.56
    SETDIJ:  cpu time    0.96: real time    0.96
    EDDIAG:  cpu time    6.32: real time    6.32
  RMM-DIIS:  cpu time   17.25: real time   17.26
    ORTHCH:  cpu time    2.08: real time    2.08
       DOS:  cpu time    0.02: real time    0.02
    CHARGE:  cpu time    1.62: real time    1.62
    MIXING:  cpu time    0.02: real time    0.02
    --------------------------------------------
      LOOP:  cpu time   28.82: real time   28.86

 eigenvalue-minimisations  : 15805
 total energy-change (2. order) :-0.2560388E+02  (-0.3021813E+02)
 number of electron    1112.0000456 magnetization      -0.0000203
 augmentation part      439.2772404 magnetization      -0.6377786

 DIPCOR: dipole corrections for dipol
 direction  3 min pos   298,
 dipolmoment           0.000000      0.000000      0.197779 electrons x Angstroem
 Tr[quadrupol]    -19387.468868

 energy correction for charged system         0.000000 eV
 dipol+quadrupol energy correction           -0.001044 eV
 added-field ion interaction          5.433143 eV  (added to PSCEN)


 Broyden mixing:
  rms(total) = 0.13021E+02    rms(broyden)= 0.13021E+02
  rms(prec ) = 0.13113E+02
  weight for this iteration     100.00

 eigenvalues of (default mixing * dielectric matrix)
  average eigenvalue GAMMA=   4.4652
 20.0127  2.3968  1.4695  1.2240  0.8442  0.8442

 Free energy of the ion-electron system (eV)
  ---------------------------------------------------
  alpha Z        PSCENC =      1971.11448661
  Ewald energy   TEWEN  =   1439145.87472221
  -Hartree energ DENC   =  -1570121.58026114
  -exchange      EXHF   =         0.00000000
  -V(xc)+E(xc)   XCENC  =      5487.78061212
  PAW double counting   =    125451.34122815  -129384.09304103
  entropy T*S    EENTRO =        -0.01181922
  eigenvalues    EBANDS =    -22718.07509886
  atomic energy  EATOM  =    149282.92348897
  ---------------------------------------------------
  free energy    TOTEN  =      -884.72568218 eV

  energy without entropy =     -884.71386296  energy(sigma->0) =     -884.71977257


--------------------------------------------------------------------------------------------------------




----------------------------------------- Iteration    1(  12)  ---------------------------------------


    POTLOK:  cpu time    0.56: real time    0.56
    SETDIJ:  cpu time    0.95: real time    0.95
    EDDIAG:  cpu time    6.30: real time    6.31
  RMM-DIIS:  cpu time   19.13: real time   19.14
    ORTHCH:  cpu time    2.07: real time    2.08
       DOS:  cpu time    0.01: real time    0.01
    CHARGE:  cpu time    1.62: real time    1.62
    MIXING:  cpu time    0.02: real time    0.02
    --------------------------------------------
      LOOP:  cpu time   30.67: real time   30.71

 eigenvalue-minimisations  : 17365
 total energy-change (2. order) : 0.6024883E+02  (-0.4674451E+01)
 number of electron    1112.0000441 magnetization      -0.0000234
 augmentation part      441.2116980 magnetization      -1.2992385

 DIPCOR: dipole corrections for dipol
 direction  3 min pos   298,
 dipolmoment           0.000000      0.000000      0.178575 electrons x Angstroem
 Tr[quadrupol]    -19391.230032

 energy correction for charged system         0.000000 eV
 dipol+quadrupol energy correction           -0.000851 eV
 added-field ion interaction          4.905613 eV  (added to PSCEN)


 Broyden mixing:
  rms(total) = 0.11115E+02    rms(broyden)= 0.11115E+02
  rms(prec ) = 0.11176E+02
  weight for this iteration     100.00

 eigenvalues of (default mixing * dielectric matrix)
  average eigenvalue GAMMA=   5.6830
 17.0116 17.0116  1.4228  1.4228  1.1211  1.1211  0.6700

 Free energy of the ion-electron system (eV)
  ---------------------------------------------------
  alpha Z        PSCENC =      1970.58714976
  Ewald energy   TEWEN  =   1439145.87472221
  -Hartree energ DENC   =  -1569994.68963457
  -exchange      EXHF   =         0.00000000
  -V(xc)+E(xc)   XCENC  =      5495.64496474
  PAW double counting   =    128235.56643327  -132198.24424621
  entropy T*S    EENTRO =        -0.00000000
  eigenvalues    EBANDS =    -22762.13972696
  atomic energy  EATOM  =    149282.92348897
  ---------------------------------------------------
  free energy    TOTEN  =      -824.47684880 eV

  energy without entropy =     -824.47684880  energy(sigma->0) =     -824.47684880


--------------------------------------------------------------------------------------------------------




----------------------------------------- Iteration    1(  13)  ---------------------------------------


    POTLOK:  cpu time    0.55: real time    0.55
    SETDIJ:  cpu time    0.96: real time    0.96
    EDDIAG:  cpu time    6.30: real time    6.30
[...]
   0.282E+02 -.431E+02 -.658E+03   -.278E+02 0.426E+02 0.659E+03   -.331E+00 0.391E+00 0.136E+00   -.112E+00 0.408E-01 -.233E+00
   -.482E+01 -.998E+02 0.362E+04   0.572E+01 0.110E+03 -.363E+04   -.853E+00 -.105E+02 0.104E+02   -.388E-01 0.225E+00 -.637E+00
   0.314E+02 0.466E+02 -.667E+03   -.318E+02 -.465E+02 0.667E+03   0.518E+00 -.100E+00 0.714E+00   -.110E+00 0.256E-01 -.110E+00
   0.887E+02 0.467E+02 0.362E+04   -.981E+02 -.511E+02 -.363E+04   0.956E+01 0.460E+01 0.104E+02   -.173E+00 -.144E+00 -.626E+00
   0.752E+02 -.577E+02 -.356E+04   -.831E+02 0.616E+02 0.357E+04   0.859E+01 -.555E+01 -.932E+01   -.674E+00 0.152E+01 0.340E+00
   0.536E+02 0.166E+01 0.707E+03   -.536E+02 -.166E+01 -.707E+03   -.108E+00 0.132E-01 -.314E+00   0.122E+00 -.233E-01 0.160E+00
   0.350E+01 0.109E+03 -.355E+04   -.411E+01 -.118E+03 0.356E+04   0.162E+01 0.105E+02 -.893E+01   -.949E+00 -.165E+01 0.125E+00
   -.257E+02 0.463E+02 0.708E+03   0.256E+02 -.464E+02 -.708E+03   0.199E+00 -.109E+00 -.349E+00   -.634E-01 0.115E+00 0.157E+00
   -.601E+02 -.697E+02 -.347E+04   0.635E+02 0.753E+02 0.347E+04   -.425E+01 -.529E+01 -.767E+01   0.794E+00 -.211E+00 0.132E+00
   -.257E+02 -.445E+02 0.709E+03   0.257E+02 0.442E+02 -.709E+03   -.856E-02 0.265E+00 -.175E+00   -.563E-01 0.730E-02 0.531E-01
   -.604E+02 -.289E+02 0.208E+04   0.616E+02 0.305E+02 -.208E+04   -.124E+01 -.163E+01 -.781E+00   0.418E-01 0.400E-01 -.154E+00
   0.148E+02 0.655E+02 -.204E+04   -.146E+02 -.674E+02 0.203E+04   -.183E+00 0.155E+01 0.140E+01   -.494E-01 0.333E+00 0.503E-01
   0.565E+02 -.386E+02 0.208E+04   -.584E+02 0.389E+02 -.208E+04   0.199E+01 -.272E+00 -.729E+00   -.701E-01 0.232E-02 -.146E+00
   -.571E+02 0.457E+02 -.203E+04   0.591E+02 -.461E+02 0.203E+04   -.232E+01 0.349E+00 0.607E+00   0.264E+00 0.952E-01 0.143E+00
   0.516E+01 0.669E+02 0.208E+04   -.437E+01 -.688E+02 -.208E+04   -.805E+00 0.192E+01 -.739E+00   0.115E-01 -.616E-01 -.151E+00
   0.577E+02 -.568E+02 -.204E+04   -.605E+02 0.588E+02 0.204E+04   0.268E+01 -.200E+01 0.175E+01   0.832E-01 0.449E-01 0.324E+00
   -.512E+02 0.113E+01 -.672E+03   0.510E+02 -.127E+01 0.672E+03   0.145E+00 0.227E+00 0.498E+00   0.325E-01 -.839E-01 -.681E-01
   -.844E+02 0.535E+02 0.362E+04   0.929E+02 -.594E+02 -.363E+04   -.874E+01 0.599E+01 0.104E+02   0.202E+00 -.907E-01 -.629E+00
   0.260E+02 -.580E+02 -.639E+03   -.258E+02 0.589E+02 0.637E+03   -.303E+00 -.768E+00 0.118E+01   0.766E-01 -.886E-01 0.101E+00
   -.435E+01 -.999E+02 0.362E+04   0.520E+01 0.110E+03 -.363E+04   -.820E+00 -.106E+02 0.104E+02   -.337E-01 0.221E+00 -.636E+00
   0.391E+02 0.487E+02 -.641E+03   -.399E+02 -.490E+02 0.640E+03   0.855E+00 0.723E-01 0.113E+01   0.680E-02 0.164E+00 0.643E-01
   0.888E+02 0.458E+02 0.362E+04   -.982E+02 -.502E+02 -.363E+04   0.956E+01 0.455E+01 0.104E+02   -.173E+00 -.148E+00 -.637E+00
   0.559E+02 -.757E+01 -.367E+04   -.633E+02 0.116E+02 0.368E+04   0.725E+01 -.377E+01 -.175E+02   0.121E+00 -.217E+00 0.289E+00
   0.519E+02 0.558E+00 0.707E+03   -.517E+02 -.375E+00 -.706E+03   -.226E+00 -.131E+00 -.242E+00   0.326E-01 -.510E-01 0.671E-01
   -.102E+02 0.757E+02 -.365E+04   0.105E+02 -.841E+02 0.366E+04   -.124E+00 0.793E+01 -.155E+02   -.228E+00 0.476E+00 0.401E+00
   -.179E+02 0.441E+02 0.711E+03   0.173E+02 -.439E+02 -.711E+03   0.730E+00 -.221E+00 -.525E+00   -.581E-01 -.174E-02 0.674E-01
   -.961E+02 -.353E+02 -.356E+04   0.104E+03 0.404E+02 0.357E+04   -.989E+01 -.498E+01 -.886E+01   0.188E+01 -.425E-01 0.746E-01
   -.290E+02 -.389E+02 0.714E+03   0.291E+02 0.383E+02 -.714E+03   -.142E+00 0.685E+00 -.404E+00   0.271E-01 -.434E-01 0.555E-01
   -.616E+02 -.300E+02 0.208E+04   0.628E+02 0.316E+02 -.208E+04   -.127E+01 -.168E+01 -.657E+00   0.777E-01 0.255E-01 -.121E+00
   0.725E+02 0.335E+02 -.205E+04   -.749E+02 -.359E+02 0.205E+04   0.196E+01 0.224E+01 -.128E+00   0.435E+00 0.144E+00 0.525E-01
   0.554E+02 -.380E+02 0.208E+04   -.574E+02 0.382E+02 -.208E+04   0.204E+01 -.243E+00 -.726E+00   -.629E-01 0.205E-01 -.155E+00
   -.727E+02 -.214E+02 -.204E+04   0.749E+02 0.233E+02 0.204E+04   -.204E+01 -.183E+01 0.154E+01   -.153E+00 -.963E-01 0.310E+00
   0.367E+01 0.678E+02 0.208E+04   -.282E+01 -.696E+02 -.208E+04   -.861E+00 0.190E+01 -.777E+00   0.703E-02 -.100E+00 -.168E+00
   -.146E+02 -.772E+02 -.202E+04   0.139E+02 0.803E+02 0.202E+04   0.105E+01 -.312E+01 0.123E+01   -.334E+00 0.394E-02 0.998E-01
   -.629E+02 0.396E+01 -.639E+03   0.634E+02 -.445E+01 0.638E+03   -.329E+00 0.506E+00 0.118E+01   -.157E+00 -.141E-01 0.564E-01
   -.849E+02 0.535E+02 0.362E+04   0.935E+02 -.594E+02 -.363E+04   -.874E+01 0.598E+01 0.104E+02   0.213E+00 -.881E-01 -.633E+00
   0.237E+02 -.419E+02 -.663E+03   -.234E+02 0.417E+02 0.663E+03   -.289E+00 0.285E+00 0.207E-01   0.121E-01 -.713E-01 -.136E+00
   -.394E+01 -.100E+03 0.362E+04   0.478E+01 0.110E+03 -.363E+04   -.806E+00 -.106E+02 0.104E+02   -.276E-01 0.220E+00 -.619E+00
   0.189E+02 0.434E+02 -.670E+03   -.184E+02 -.428E+02 0.670E+03   -.549E+00 -.534E+00 -.761E-01   0.703E-01 -.108E+00 -.246E+00
   0.887E+02 0.461E+02 0.362E+04   -.981E+02 -.505E+02 -.363E+04   0.956E+01 0.457E+01 0.104E+02   -.179E+00 -.136E+00 -.633E+00
   0.907E+02 -.525E+02 -.356E+04   -.979E+02 0.573E+02 0.357E+04   0.816E+01 -.617E+01 -.924E+01   -.866E+00 0.128E+01 0.143E+00
   0.475E+02 -.614E+01 0.712E+03   -.470E+02 0.658E+01 -.712E+03   -.539E+00 -.496E+00 -.488E+00   0.107E-01 0.472E-01 0.662E-01
   -.152E+01 0.898E+02 -.355E+04   0.199E+01 -.988E+02 0.356E+04   0.231E+00 0.103E+02 -.962E+01   -.640E+00 -.124E+01 0.317E+00
   -.269E+02 0.444E+02 0.710E+03   0.266E+02 -.442E+02 -.709E+03   0.256E+00 -.193E+00 -.312E+00   0.283E-01 -.441E-01 0.659E-01
   -.582E+02 -.453E+02 -.367E+04   0.650E+02 0.496E+02 0.368E+04   -.657E+01 -.456E+01 -.169E+02   -.256E+00 0.192E+00 0.362E+00
   -.257E+02 -.465E+02 0.709E+03   0.257E+02 0.464E+02 -.708E+03   0.595E-01 0.215E+00 -.262E+00   -.614E-01 -.107E+00 0.151E+00
   0.111E+01 -.636E-01 -.245E+04   -.938E+00 0.471E-02 0.244E+04   -.201E+00 0.896E-01 0.368E+01   0.264E-01 -.346E-01 0.653E+00
   -.269E+02 0.483E+02 -.599E+03   0.294E+02 -.529E+02 0.601E+03   -.247E+01 0.444E+01 -.178E+01   -.344E-01 0.639E-01 0.185E-01
   0.480E+02 -.376E+02 -.684E+03   -.527E+02 0.407E+02 0.689E+03   0.477E+01 -.323E+01 -.580E+01   -.824E-01 0.974E-01 0.309E-01
   0.544E+02 -.360E+00 -.599E+03   -.596E+02 0.349E+00 0.601E+03   0.502E+01 0.121E-01 -.177E+01   0.937E-01 -.401E-02 0.293E-01
   -.272E+02 -.467E+02 -.599E+03   0.298E+02 0.511E+02 0.601E+03   -.257E+01 -.432E+01 -.185E+01   -.389E-01 -.782E-01 0.244E-01
 -----------------------------------------------------------------------------------------------
   0.103E+02 -.538E+01 0.125E+02   -.135E-12 -.483E-12 -.160E-10   -.102E+02 0.558E+01 -.568E+01   0.429E-01 -.447E-01 -.685E+01
 
 
 POSITION                                       TOTAL-FORCE (eV/Angst)
 -----------------------------------------------------------------------------------
      0.04552      0.39291      5.19941        -0.000991      0.001105      0.006411
      0.04523      0.39279      9.25375         0.005310      0.005513     -0.024008
      0.04389      0.39131      2.36397        -0.001246      0.003086     -0.043435
      0.09047      0.41610     12.10134        -0.001701     -0.010384      0.007385
      2.60256      1.88287      9.84161         0.006158      0.003666     -0.003035
      2.68802      1.76935     13.77982         0.016679     -0.026268     -0.108431
      2.60078      1.86968      6.92807         0.011430      0.012625     -0.014368
      2.60147      1.86850      2.72645        -0.000205      0.003683     -0.021870
      0.04412      3.34499      1.21203         0.001760     -0.002644      0.007366
      0.04462      3.34428      4.63782         0.000391      0.015174     -0.012205
     -0.01579      3.32593     11.62904        -0.023526      0.029840     -0.018553
      0.04579      3.34244      7.53091        -0.000348      0.003909      0.002408
      5.15691      0.39614      5.19296        -0.000151      0.006598      0.013382
      5.13114      0.40832      9.26757        -0.007730     -0.003811     -0.013111
      5.16011      0.39139      2.36051        -0.000869      0.003851     -0.039606
      5.14258      0.44526     12.12183         0.001976     -0.040128      0.008637
      7.70404      1.83800      9.80560        -0.017254     -0.006472      0.002518
      7.73693      1.87427     13.32632        -0.008510      0.010327      0.013714
      7.71903      1.87141      6.91540        -0.008120      0.009694     -0.017428
      7.71732      1.86803      2.72596        -0.002056      0.005467     -0.022312
      5.15970      3.34549      1.21078         0.001920     -0.003260      0.007944
      5.15935      3.34566      4.63907         0.001899      0.011721     -0.003472
      5.15641      3.33392     11.75617         0.003753      0.007538     -0.001100
      5.15969      3.34719      7.52421        -0.006118     -0.000181      0.007144
     -2.51619      4.82085      5.19132        -0.002536      0.003454      0.016875
     -2.52422      4.79504      9.26191        -0.005424     -0.005576     -0.015879
     -2.51362      4.82219      2.35970        -0.000916      0.003634     -0.039063
     -2.51343      4.83406     12.12228         0.026644      0.009746      0.021690
      0.04755      6.30034      9.71350        -0.003741      0.012925      0.008458
      0.04477      6.34286     12.57720        -0.000248     -0.000603      0.006147
      0.04415      6.30044      6.87770        -0.003624      0.004591     -0.001430
      0.04403      6.29872      2.72451        -0.001806      0.004408     -0.024958
     -2.51415      7.77584      1.21263         0.002381     -0.003227      0.008244
     -2.51481      7.77692      4.64027         0.003456      0.011019     -0.009790
     -2.51497      7.84704     11.76315         0.033079     -0.009070     -0.001864
     -2.51595      7.78122      7.53582        -0.000610      0.003474      0.003832
      2.60710      4.82270      5.19298         0.002920      0.001528      0.010860
      2.62830      4.83033      9.24764         0.006162      0.002437     -0.016524
      2.60154      4.82157      2.36010        -0.000789      0.003867     -0.038768
      2.66683      4.86179     12.07164         0.002840      0.039416      0.010175
      5.19002      6.31118      9.82719         0.004991     -0.002607      0.006741
      5.18029      6.32775     13.35159         0.001575     -0.012820      0.008501
      5.16093      6.30096      6.92282        -0.001836     -0.003671     -0.013887
      5.15994      6.29894      2.72657        -0.002985      0.002320     -0.021757
      2.60191      7.77562      1.21210         0.001402     -0.002069      0.008531
      2.60313      7.77655      4.63850        -0.000588      0.010984     -0.012056
      2.63914      7.79757     11.74999        -0.014043     -0.022910     -0.001452
      2.60748      7.78092      7.53300        -0.003354     -0.001313      0.001192
      1.63380      0.39227      3.73886         0.003813     -0.012590      0.015867
      3.59042      0.39476     10.67449        -0.010490      0.021510     -0.015578
     -0.75003      1.76909      3.73701        -0.007921      0.008684      0.022669
     -1.73876      3.44311     10.67420         0.009766     -0.022114     -0.009349
      1.80588      3.44499      3.73396        -0.002270     -0.003382      0.014814
      0.82691      1.79252     10.68747         0.005380      0.006244     -0.000212
     -0.95400      1.85871      8.36819         0.005027     -0.007829      0.012324
      0.99277      1.81621      1.44633        -0.005270     -0.007344      0.003143
      1.82324      3.24280      8.38735        -0.005269     -0.000573      0.003956
      3.45020      0.50161      1.44642         0.004629     -0.009102     -0.000063
      1.81611      0.52522      8.37772         0.000886     -0.011220      0.002501
     -1.75421      3.28652      1.44536         0.006040      0.006586      0.006037
      1.67377      3.39388     13.12758         0.042113     -0.050175      0.011983
     -1.52250      3.35190      6.06507        -0.004205     -0.006122     -0.008475
      1.78078      0.34030     12.98417         0.059370      0.100256      0.065918
      0.82203      1.98931      6.07205         0.000239     -0.012039     -0.008131
     -0.71002      1.95181     12.98701        -0.106674     -0.000179      0.037612
      3.38941      0.27207      6.06977         0.009029      0.005610      0.002289
      6.75076      0.39175      3.73448         0.005071     -0.008045      0.013921
      8.69749      0.38961     10.70318        -0.000943      0.011342     -0.015994
      4.36643      1.77068      3.73515        -0.007467      0.008956      0.023613
      3.37694      3.47715     10.72921         0.019924     -0.018975     -0.004834
      6.91996      3.44589      3.73511        -0.000390     -0.004277      0.014070
      5.94427      1.76053     10.70332         0.006782      0.029337     -0.010938
      4.16103      1.87706      8.38025         0.001817     -0.005594      0.021703
      6.10879      1.81692      1.44440        -0.004066     -0.007920      0.005431
      6.93643      3.21966      8.36834        -0.001428     -0.005104      0.012572
      8.56675      0.50103      1.44677         0.003439     -0.010552     -0.004205
      6.91703      0.50201      8.39305        -0.000832     -0.010506     -0.001299
      3.36163      3.28663      1.44509         0.006180      0.009371      0.005189
      6.78750      3.38874     13.00879         0.022829     -0.125860      0.038115
      3.59398      3.35344      6.07115        -0.013091     -0.004408     -0.012626
      6.89072      0.31213     12.98931         0.065031      0.115403      0.048430
      5.93690      1.98646      6.06898         0.006371     -0.012668     -0.013399
      4.37241      1.96020     12.99148        -0.107185      0.031123      0.049434
      8.50447      0.26831      6.07029         0.005007      0.006194      0.003924
     -0.92283      4.82109      3.73413         0.005248     -0.008719      0.010411
      0.98845      4.84905     10.74127        -0.005504     -0.018159     -0.006577
     -3.30778      6.20116      3.73401        -0.006243      0.010793      0.024168
     -4.25973      7.89837     10.70706        -0.012790     -0.000637     -0.015866
     -0.75344      7.87616      3.73502        -0.003044     -0.003749      0.012913
     -1.63367      6.21879     10.78077        -0.003014     -0.001286     -0.019212
     -3.48621      6.29417      8.39534        -0.009637      0.002379      0.001534
     -1.56474      6.24693      1.44336        -0.003162     -0.005847      0.005740
     -0.72593      7.66290      8.36093        -0.005156      0.012251     -0.007322
      0.89302      4.93172      1.44397         0.001686     -0.009477      0.002078
     -0.75194      4.94381      8.36587        -0.009786     -0.014202     -0.009830
     -4.31222      7.71742      1.44694         0.006452      0.010030      0.003030
     -0.90692      7.86235     12.99527        -0.020336      0.017109     -0.028104
     -4.07712      7.78247      6.07352        -0.003976     -0.000315     -0.003194
     -0.74897      4.69923     12.95442         0.011595     -0.025983     -0.025608
     -1.73829      6.41855      6.06099         0.010986     -0.011040     -0.002862
     -3.27499      6.36981     13.01123        -0.133837      0.014973      0.053370
      0.83268      4.69735      6.05940         0.011497      0.014588      0.005184
      4.19257      4.82095      3.73626         0.002597     -0.007676      0.012358
      6.15802      4.82573     10.71425        -0.024250     -0.017408     -0.013180
      1.80919      6.20091      3.73387        -0.006957      0.009476      0.025077
      0.82786      7.79535     10.77753        -0.001645      0.009329     -0.020345
      4.36432      7.87593      3.73730         0.001347     -0.002292      0.020521
      3.41531      6.20788     10.69840         0.017182     -0.006304     -0.033618
      1.61937      6.28702      8.35960         0.010738     -0.003154     -0.001357
      3.55125      6.24718      1.44548        -0.002515     -0.008390     -0.000228
      4.39074      7.65708      8.37478         0.005079      0.005718      0.012984
      6.00821      4.93180      1.44546         0.002985     -0.009612     -0.000053
      4.38758      4.94940      8.37980        -0.007459     -0.001462      0.003053
      0.80331      7.71731      1.44433         0.006502      0.007449      0.005624
      4.24156      7.84294     13.01298         0.063363     -0.090829      0.032413
      1.03854      7.78456      6.05975        -0.004342     -0.008883      0.004442
      4.34622      4.74850     13.01038         0.065785      0.072939      0.043189
      3.38357      6.41747      6.06823         0.002147     -0.002554     -0.008779
      1.85507      6.34703     12.97365         0.002602     -0.021328     -0.016925
      5.94865      4.70192      6.06864         0.008502      0.014739     -0.002729
      2.66047      1.77139     15.81909        -0.003198     -0.005183     -0.117399
      3.16635      0.86567     16.18130         0.045987     -0.077552      0.023211
      1.11040      3.78236     13.82813        -0.005054     -0.001766     -0.003525
      1.62088      1.77332     16.17861        -0.085499     -0.004382      0.027302
      3.18530      2.66088     16.19564         0.048479      0.071792      0.029905
 -----------------------------------------------------------------------------------
    total drift:                                0.075107      0.162596     -0.016204


--------------------------------------------------------------------------------------------------------



  FREE ENERGIE OF THE ION-ELECTRON SYSTEM (eV)
  ---------------------------------------------------
  free  energy   TOTEN  =      -830.98730485 eV

  energy  without entropy=     -830.98730485  energy(sigma->0) =     -830.98730485
 


--------------------------------------------------------------------------------------------------------


    POTLOK:  cpu time    1.52: real time    1.53


--------------------------------------------------------------------------------------------------------


 stress matrix after NEB project (eV)
     34.34353     -0.94338     -0.07297
     -0.94336     34.46715      0.35411
     -0.07298      0.35416     20.92923
  FORCES: max atom, RMS     0.144861    0.043055
  FORCE total and by dimension    0.481370    0.133837
  Stress total and by dimension   52.986190   34.467151


--------------------------------------------------------------------------------------------------------


     LOOP+:  cpu time  947.40: real time  948.87
    4ORBIT:  cpu time    0.00: real time    0.00

 total amount of memory used by VASP on root node   576387. kBytes
========================================================================

   base      :      30000. kBytes
   nonlr-proj:      30113. kBytes
   fftplans  :      11616. kBytes
   grid      :      84883. kBytes
   one-center:       3888. kBytes
   wavefun   :     415887. kBytes
 
  
  
 General timing and accounting informations for this job:
 ========================================================
  
                  Total CPU time used (sec):      984.438
                            User time (sec):      944.519
                          System time (sec):       39.918
                         Elapsed time (sec):      986.591
  
                   Maximum memory used (kb):      762972.
                   Average memory used (kb):           0.
  
                          Minor page faults:     14145266
                          Major page faults:            0
                 Voluntary context switches:         2338
