 vasp.5.3.3 18Dez12 (build Mar 06 2013 10:35:37) complex                        
  
 executed on             LinuxIFC date 2014.09.10  04:56:21
 running on   48 total cores
 distrk:  each k-point on   48 cores,    1 groups
 distr:  one band on NCORES_PER_BAND=  12 cores,    4 groups


--------------------------------------------------------------------------------------------------------


 INCAR:
 POTCAR:    PAW_PBE Fe_pv 02Aug2007               
 POTCAR:    PAW_PBE O 08Apr2002                   
 POTCAR:    PAW_PBE Fe_pv 02Aug2007               
   VRHFIN =Fe:  3pd7s1                                                          
   LEXCH  = PE                                                                  
   EATOM  =  2457.4239 eV,  180.6156 Ry                                         
                                                                                
   TITEL  = PAW_PBE Fe_pv 02Aug2007                                             
   LULTRA =        F    use ultrasoft PP ?                                      
   IUNSCR =        1    unscreen: 0-lin 1-nonlin 2-no                           
   RPACOR =    1.750    partial core radius                                     
   POMASS =   55.847; ZVAL   =   14.000    mass and valenz                      
   RCORE  =    2.200    outmost cutoff radius                                   
   RWIGS  =    2.200; RWIGS  =    1.164    wigner-seitz radius (au A)           
   ENMAX  =  293.238; ENMIN  =  219.928 eV                                      
   ICORE  =        3    local potential                                         
   LCOR   =        T    correct aug charges                                     
   LPAW   =        T    paw PP                                                  
   EAUG   =  578.342                                                            
   DEXC   =    0.000                                                            
   RMAX   =    2.249    core radius for proj-oper                               
   RAUG   =    1.300    factor for augmentation sphere                          
   RDEP   =    2.296    radius for radial grids                                 
   RDEPT  =    1.766    core radius for aug-charge                              
                                                                                
   Atomic configuration                                                         
    8 entries                                                                   
     n  l   j            E        occ.                                          
     1  0  0.50     -6993.8440   2.0000                                         
     2  0  0.50      -814.6047   2.0000                                         
     2  1  1.50      -693.3689   6.0000                                         
     3  0  0.50       -89.4732   2.0000                                         
     3  1  1.50       -55.6373   6.0000                                         
     3  2  2.50        -3.8151   7.0000                                         
     4  0  0.50        -4.2551   1.0000                                         
     4  3  2.50        -1.3606   0.0000                                         
   Description                                                                  
     l       E           TYP  RCUT    TYP  RCUT                                 
     1    -55.6372668     23  2.000                                             
     1     -5.4423304     23  2.000                                             
     2     -3.8151096     23  2.200                                             
     2     -5.1756922     23  2.200                                             
     0     -4.2550951     23  2.200                                             
     0     27.2116520     23  2.200                                             
     3     -1.3605826     23  2.200                                             
  local pseudopotential read in
  partial core-charges read in
  partial kinetic energy density read in
  atomic valenz-charges read in
  non local Contribution for L=           1  read in
    real space projection operators read in
  non local Contribution for L=           1  read in
    real space projection operators read in
  non local Contribution for L=           2  read in
    real space projection operators read in
  non local Contribution for L=           2  read in
    real space projection operators read in
  non local Contribution for L=           0  read in
    real space projection operators read in
  non local Contribution for L=           0  read in
    real space projection operators read in
    PAW grid and wavefunctions read in
 
   number of l-projection  operators is LMAX  =           6
   number of lm-projection operators is LMMAX =          18
 
 POTCAR:    PAW_PBE O 08Apr2002                   
   VRHFIN =O: s2p4                                                              
   LEXCH  = PE                                                                  
   EATOM  =   432.3788 eV,   31.7789 Ry                                         
                                                                                
   TITEL  = PAW_PBE O 08Apr2002                                                 
   LULTRA =        F    use ultrasoft PP ?                                      
   IUNSCR =        1    unscreen: 0-lin 1-nonlin 2-no                           
   RPACOR =    1.200    partial core radius                                     
   POMASS =   16.000; ZVAL   =    6.000    mass and valenz                      
   RCORE  =    1.520    outmost cutoff radius                                   
   RWIGS  =    1.550; RWIGS  =    0.820    wigner-seitz radius (au A)           
   ENMAX  =  400.000; ENMIN  =  300.000 eV                                      
   ICORE  =        2    local potential                                         
   LCOR   =        T    correct aug charges                                     
   LPAW   =        T    paw PP                                                  
   EAUG   =  605.392                                                            
   DEXC   =    0.000                                                            
   RMAX   =    1.553    core radius for proj-oper                               
   RAUG   =    1.300    factor for augmentation sphere                          
   RDEP   =    1.550    radius for radial grids                                 
   RDEPT  =    1.329    core radius for aug-charge                              
                                                                                
   Atomic configuration                                                         
    4 entries                                                                   
     n  l   j            E        occ.                                          
     1  0  0.50      -514.6923   2.0000                                         
     2  0  0.50       -23.9615   2.0000                                         
     2  1  0.50        -9.0305   4.0000                                         
     3  2  1.50        -9.5241   0.0000                                         
   Description                                                                  
     l       E           TYP  RCUT    TYP  RCUT                                 
     0    -23.9615318     23  1.200                                             
     0     -9.5240782     23  1.200                                             
     1     -9.0304911     23  1.520                                             
     1      8.1634956     23  1.520                                             
     2     -9.5240782      7  1.500                                             
  local pseudopotential read in
  partial core-charges read in
  partial kinetic energy density read in
  kinetic energy density of atom read in
  atomic valenz-charges read in
  non local Contribution for L=           0  read in
    real space projection operators read in
  non local Contribution for L=           0  read in
    real space projection operators read in
  non local Contribution for L=           1  read in
    real space projection operators read in
  non local Contribution for L=           1  read in
    real space projection operators read in
    PAW grid and wavefunctions read in
 
   number of l-projection  operators is LMAX  =           4
   number of lm-projection operators is LMMAX =           8
 
 Optimization of the real space projectors (new method)

 maximal supplied QI-value         = 17.01
 optimisation between [QCUT,QGAM] = [ 11.57, 23.30] = [ 37.45,152.03] Ry 
 Optimized for a Real-space Cutoff    1.40 Angstroem

   l    n(q)    QCUT    max X(q) W(low)/X(q) W(high)/X(q)  e(spline) 
   1      9    11.565     4.267    0.25E-03    0.26E-03    0.15E-06
   1      9    11.565     5.750    0.39E-03    0.39E-03    0.22E-06
   2      9    11.565    53.656    0.10E-03    0.13E-03    0.16E-06
   2      9    11.565    49.521    0.10E-03    0.13E-03    0.16E-06
   0     10    11.565    31.246    0.56E-04    0.21E-04    0.74E-07
   0     10    11.565    12.201    0.39E-04    0.19E-04    0.62E-07
 Optimization of the real space projectors (new method)

 maximal supplied QI-value         = 24.76
 optimisation between [QCUT,QGAM] = [ 11.64, 23.27] = [ 37.91,151.63] Ry 
 Optimized for a Real-space Cutoff    1.04 Angstroem

   l    n(q)    QCUT    max X(q) W(low)/X(q) W(high)/X(q)  e(spline) 
   0      7    11.635    20.381    0.14E-03    0.49E-03    0.18E-06
   0      7    11.635    15.268    0.16E-03    0.52E-03    0.19E-06
   1      7    11.635     5.964    0.30E-03    0.44E-03    0.22E-06
   1      7    11.635     5.382    0.27E-03    0.34E-03    0.19E-06
  PAW_PBE Fe_pv 02Aug2007               :
 energy of atom  1       EATOM=-2457.4239
 kinetic energy error for atom=    0.0062 (will be added to EATOM!!)
  PAW_PBE O 08Apr2002                   :
 energy of atom  2       EATOM= -432.3788
 kinetic energy error for atom=    0.0208 (will be added to EATOM!!)
 
 
 POSCAR:  Fe2O3 Fe terminated slab, 24 A vacuum l
  positions in direct lattice
  velocities in cartesian coordinates
 exchange correlation table for  LEXCH =        8
   RHO(1)=    0.500       N(1)  =     2000
   RHO(2)=  100.500       N(2)  =     4000
 


--------------------------------------------------------------------------------------------------------


 ion  position               nearest neighbor table
   1  0.027  0.044  0.139-  84 1.98  64 1.98  98 1.98  51 2.16  49 2.16 107 2.16
   2  0.027  0.045  0.247-  55 1.98  59 1.98 111 1.98  68 2.16  54 2.16  88 2.16
   3  0.026  0.044  0.063-  56 1.94  76 1.94  96 1.94 107 2.10  49 2.10  51 2.10
   4  0.027  0.045  0.323-  65 1.94  63 1.94 115 1.94  68 2.10  54 2.10  88 2.10
   5  0.360  0.211  0.262-  70 1.98  54 1.98  50 1.98  73 2.12  57 2.12  59 2.12
   6  0.360  0.211  0.354-  83 1.81  63 1.81  61 1.81
   7  0.360  0.211  0.185-  80 1.97  64 1.97  66 1.97  59 2.14  57 2.14  73 2.14
   8  0.360  0.211  0.073-  49 2.03  53 2.03  69 2.04  78 2.06  58 2.06  56 2.06
   9  0.193  0.377  0.032-  94 1.81  60 1.81  56 1.81
  10  0.193  0.378  0.124-  53 1.98  85 1.98  51 1.98  62 2.12  64 2.12 102 2.12
  11  0.194  0.378  0.313-  52 2.03  86 2.03  54 2.03  61 2.06  99 2.06  65 2.06
  12  0.194  0.378  0.201-  55 1.97  95 1.97  57 1.97 102 2.14  64 2.14  62 2.14
  13  0.527  0.044  0.139-  66 1.98  82 1.98 116 1.98  69 2.16  67 2.16  89 2.16
  14  0.527  0.045  0.247-  73 1.98  77 1.98  93 1.98  50 2.16  72 2.16 106 2.16
  15  0.526  0.044  0.063-  74 1.94  58 1.94 114 1.94  89 2.10  67 2.10  69 2.10
  16  0.527  0.045  0.323-  83 1.94  81 1.94  97 1.94  50 2.10  72 2.10 106 2.10
  17  0.860  0.211  0.262-  52 1.98  72 1.98  68 1.98  55 2.12  75 2.12  77 2.12
  18  0.860  0.211  0.354-  65 1.81  81 1.81  79 1.81
  19  0.860  0.211  0.185-  62 1.97  82 1.97  84 1.97  77 2.14  75 2.14  55 2.14
  20  0.860  0.211  0.073-  67 2.03  71 2.03  51 2.04  60 2.06  76 2.06  74 2.06
  21  0.693  0.377  0.032- 112 1.81  78 1.81  74 1.81
  22  0.693  0.378  0.124-  71 1.98 103 1.98  69 1.98  80 2.12  82 2.12 120 2.12
  23  0.694  0.378  0.313-  70 2.03 104 2.03  72 2.03  79 2.06 117 2.06  83 2.06
  24  0.694  0.378  0.201-  73 1.97 113 1.97  75 1.97 120 2.14  82 2.14  80 2.14
  25  0.027  0.544  0.139- 120 1.98 100 1.98  62 1.98  87 2.16  85 2.16  71 2.16
  26  0.027  0.545  0.247-  91 1.98  95 1.98  75 1.98 104 2.16  90 2.16  52 2.16
  27  0.026  0.544  0.063-  92 1.94 112 1.94  60 1.94  71 2.10  85 2.10  87 2.10
  28  0.027  0.545  0.323- 101 1.94  99 1.94  79 1.94 104 2.10  90 2.10  52 2.10
  29  0.360  0.711  0.262- 106 1.98  90 1.98  86 1.98 109 2.12  93 2.12  95 2.12
  30  0.360  0.711  0.354- 119 1.81  99 1.81  97 1.81
  31  0.360  0.711  0.185- 116 1.97 100 1.97 102 1.97  95 2.14  93 2.14 109 2.14
  32  0.360  0.711  0.073-  85 2.03  89 2.03 105 2.04 114 2.06  94 2.06  92 2.06
  33  0.193  0.877  0.032-  58 1.81  96 1.81  92 1.81
  34  0.193  0.878  0.124-  89 1.98  49 1.98  87 1.98  98 2.12 100 2.12  66 2.12
  35  0.194  0.878  0.313-  88 2.03  50 2.03  90 2.03  97 2.06  63 2.06 101 2.06
  36  0.194  0.878  0.201-  91 1.97  59 1.97  93 1.97  66 2.14 100 2.14  98 2.14
  37  0.527  0.544  0.139- 102 1.98 118 1.98  80 1.98 105 2.16 103 2.16  53 2.16
  38  0.527  0.545  0.247- 109 1.98 113 1.98  57 1.98  86 2.16 108 2.16  70 2.16
  39  0.526  0.544  0.063- 110 1.94  94 1.94  78 1.94  53 2.10 103 2.10 105 2.10
  40  0.527  0.545  0.323- 119 1.94 117 1.94  61 1.94  86 2.10 108 2.10  70 2.10
  41  0.860  0.711  0.262-  88 1.98 108 1.98 104 1.98  91 2.12 111 2.12 113 2.12
  42  0.860  0.711  0.354- 101 1.81 117 1.81 115 1.81
  43  0.860  0.711  0.185-  98 1.97 118 1.97 120 1.97 113 2.14 111 2.14  91 2.14
  44  0.860  0.711  0.073- 103 2.03 107 2.03  87 2.04  96 2.06 112 2.06 110 2.06
  45  0.693  0.877  0.032-  76 1.81 114 1.81 110 1.81
  46  0.693  0.878  0.124- 107 1.98  67 1.98 105 1.98 116 2.12 118 2.12  84 2.12
  47  0.694  0.878  0.313- 106 2.03  68 2.03 108 2.03 115 2.06  81 2.06 119 2.06
  48  0.694  0.878  0.201- 109 1.97  77 1.97 111 1.97  84 2.14 118 2.14 116 2.14
  49  0.182  0.044  0.100-  34 1.98   8 2.03   3 2.10   1 2.16
  50  0.372  0.045  0.286-   5 1.98  35 2.03  16 2.10  14 2.16
  51  0.026  0.200  0.100-  10 1.98  20 2.04   3 2.10   1 2.16
  52  0.027  0.389  0.286-  17 1.98  11 2.03  28 2.10  26 2.16
  53  0.371  0.389  0.100-  10 1.98   8 2.03  39 2.10  37 2.16
  54  0.183  0.200  0.286-   5 1.98  11 2.03   4 2.10   2 2.16
  55  0.013  0.211  0.224-  12 1.97   2 1.98  17 2.12  19 2.14
  56  0.199  0.205  0.039-   9 1.81   3 1.94   8 2.06
  57  0.361  0.365  0.224-  12 1.97  38 1.98   5 2.12   7 2.14
  58  0.365  0.056  0.039-  33 1.81  15 1.94   8 2.06
  59  0.207  0.059  0.224-  36 1.97   2 1.98   5 2.12   7 2.14
  60  0.014  0.371  0.039-   9 1.81  27 1.94  20 2.06
  61  0.354  0.384  0.347-   6 1.81  40 1.94  11 2.06
  62  0.041  0.378  0.162-  19 1.97  25 1.98  10 2.12  12 2.14
  63  0.188  0.032  0.347-   6 1.81   4 1.94  35 2.06
  64  0.193  0.224  0.162-   7 1.97   1 1.98  10 2.12  12 2.14
  65  0.040  0.218  0.347-  18 1.81   4 1.94  11 2.06
  66  0.347  0.030  0.162-   7 1.97  13 1.98  34 2.12  36 2.14
  67  0.682  0.044  0.100-  46 1.98  20 2.03  15 2.10  13 2.16
  68  0.872  0.045  0.286-  17 1.98  47 2.03   4 2.10   2 2.16
  69  0.526  0.200  0.100-  22 1.98   8 2.04  15 2.10  13 2.16
  70  0.527  0.389  0.286-   5 1.98  23 2.03  40 2.10  38 2.16
  71  0.871  0.389  0.100-  22 1.98  20 2.03  27 2.10  25 2.16
  72  0.683  0.200  0.286-  17 1.98  23 2.03  16 2.10  14 2.16
  73  0.513  0.211  0.224-  24 1.97  14 1.98   5 2.12   7 2.14
  74  0.699  0.205  0.039-  21 1.81  15 1.94  20 2.06
  75  0.861  0.365  0.224-  24 1.97  26 1.98  17 2.12  19 2.14
  76  0.865  0.056  0.039-  45 1.81   3 1.94  20 2.06
  77  0.707  0.059  0.224-  48 1.97  14 1.98  17 2.12  19 2.14
  78  0.514  0.371  0.039-  21 1.81  39 1.94   8 2.06
  79  0.854  0.384  0.347-  18 1.81  28 1.94  23 2.06
  80  0.541  0.378  0.162-   7 1.97  37 1.98  22 2.12  24 2.14
  81  0.688  0.032  0.347-  18 1.81  16 1.94  47 2.06
  82  0.693  0.224  0.162-  19 1.97  13 1.98  22 2.12  24 2.14
  83  0.540  0.218  0.347-   6 1.81  16 1.94  23 2.06
  84  0.847  0.030  0.162-  19 1.97   1 1.98  46 2.12  48 2.14
  85  0.182  0.544  0.100-  10 1.98  32 2.03  27 2.10  25 2.16
  86  0.372  0.545  0.286-  29 1.98  11 2.03  40 2.10  38 2.16
  87  0.026  0.700  0.100-  34 1.98  44 2.04  27 2.10  25 2.16
  88  0.027  0.889  0.286-  41 1.98  35 2.03   4 2.10   2 2.16
  89  0.371  0.889  0.100-  34 1.98  32 2.03  15 2.10  13 2.16
  90  0.183  0.700  0.286-  29 1.98  35 2.03  28 2.10  26 2.16
  91  0.013  0.711  0.224-  36 1.97  26 1.98  41 2.12  43 2.14
  92  0.199  0.705  0.039-  33 1.81  27 1.94  32 2.06
  93  0.361  0.865  0.224-  36 1.97  14 1.98  29 2.12  31 2.14
  94  0.365  0.556  0.039-   9 1.81  39 1.94  32 2.06
  95  0.207  0.559  0.224-  12 1.97  26 1.98  29 2.12  31 2.14
  96  0.014  0.871  0.039-  33 1.81   3 1.94  44 2.06
  97  0.354  0.884  0.347-  30 1.81  16 1.94  35 2.06
  98  0.041  0.878  0.162-  43 1.97   1 1.98  34 2.12  36 2.14
  99  0.188  0.532  0.347-  30 1.81  28 1.94  11 2.06
 100  0.193  0.724  0.162-  31 1.97  25 1.98  34 2.12  36 2.14
 101  0.040  0.718  0.347-  42 1.81  28 1.94  35 2.06
 102  0.347  0.530  0.162-  31 1.97  37 1.98  10 2.12  12 2.14
 103  0.682  0.544  0.100-  22 1.98  44 2.03  39 2.10  37 2.16
 104  0.872  0.545  0.286-  41 1.98  23 2.03  28 2.10  26 2.16
 105  0.526  0.700  0.100-  46 1.98  32 2.04  39 2.10  37 2.16
 106  0.527  0.889  0.286-  29 1.98  47 2.03  16 2.10  14 2.16
 107  0.871  0.889  0.100-  46 1.98  44 2.03   3 2.10   1 2.16
 108  0.683  0.700  0.286-  41 1.98  47 2.03  40 2.10  38 2.16
 109  0.513  0.711  0.224-  48 1.97  38 1.98  29 2.12  31 2.14
 110  0.699  0.705  0.039-  45 1.81  39 1.94  44 2.06
 111  0.861  0.865  0.224-  48 1.97   2 1.98  41 2.12  43 2.14
 112  0.865  0.556  0.039-  21 1.81  27 1.94  44 2.06
 113  0.707  0.559  0.224-  24 1.97  38 1.98  41 2.12  43 2.14
 114  0.514  0.871  0.039-  45 1.81  15 1.94  32 2.06
 115  0.854  0.884  0.347-  42 1.81   4 1.94  47 2.06
 116  0.541  0.878  0.162-  31 1.97  13 1.98  46 2.12  48 2.14
 117  0.688  0.532  0.347-  42 1.81  40 1.94  23 2.06
 118  0.693  0.724  0.162-  43 1.97  37 1.98  46 2.12  48 2.14
 119  0.540  0.718  0.347-  30 1.81  40 1.94  47 2.06
 120  0.847  0.530  0.162-  43 1.97  25 1.98  22 2.12  24 2.14
 
  LATTYP: Found a hexagonal cell.
 ALAT       =    10.2313750531
 C/A-ratio  =     3.6565155755
  
  Lattice vectors:
  
 A1 = (  10.2313750530,   0.0000000000,   0.0000000000)
 A2 = (  -5.1156875265,   8.8606307116,   0.0000000000)
 A3 = (   0.0000000000,   0.0000000000,  37.4111822402)


Analysis of symmetry for initial positions (statically):
=====================================================================
 Subroutine PRICEL returns following result:
 
  LATTYP: Found a hexagonal cell.
 ALAT       =     5.1156875265
 C/A-ratio  =     7.3130311510
  
  Lattice vectors:
  
 A1 = (   5.1156875265,   0.0000000000,   0.0000000000)
 A2 = (  -2.5578437632,   4.4303153558,   0.0000000000)
 A3 = (   0.0000000000,   0.0000000000,  37.4111822402)
 
   4 primitive cells build up your supercell.
 

 Routine SETGRP: Setting up the symmetry group for a 
 hexagonal supercell.


 Subroutine GETGRP returns: Found  1 space group operations
 (whereof  1 operations were pure point group operations)
 out of a pool of 24 trial point group operations.


The static configuration has the point symmetry C_1 .


Analysis of symmetry for dynamics (positions and initial velocities):
=====================================================================
 Subroutine PRICEL returns following result:
 
  LATTYP: Found a hexagonal cell.
 ALAT       =     5.1156875265
 C/A-ratio  =     7.3130311510
  
  Lattice vectors:
  
 A1 = (   5.1156875265,   0.0000000000,   0.0000000000)
 A2 = (  -2.5578437632,   4.4303153558,   0.0000000000)
 A3 = (   0.0000000000,   0.0000000000,  37.4111822402)
 
   4 primitive cells build up your supercell.
 

 Routine SETGRP: Setting up the symmetry group for a 
 hexagonal supercell.


 Subroutine GETGRP returns: Found  1 space group operations
 (whereof  1 operations were pure point group operations)
 out of a pool of 24 trial point group operations.


The dynamic configuration has the point symmetry C_1 .


Analysis of constrained symmetry for selective dynamics:
=====================================================================
 Subroutine PRICEL returns following result:
 
  LATTYP: Found a hexagonal cell.
 ALAT       =     5.1156875265
 C/A-ratio  =     7.3130311510
  
  Lattice vectors:
  
 A1 = (   5.1156875265,   0.0000000000,   0.0000000000)
 A2 = (  -2.5578437632,   4.4303153558,   0.0000000000)
 A3 = (   0.0000000000,   0.0000000000,  37.4111822402)
 
   4 primitive cells build up your supercell.
 

 Routine SETGRP: Setting up the symmetry group for a 
 hexagonal supercell.


 Subroutine GETGRP returns: Found  1 space group operations
 (whereof  1 operations were pure point group operations)
 out of a pool of 24 trial point group operations.


The constrained configuration has the point symmetry C_1 .


Analysis of magnetic symmetry:
=====================================================================

 Subroutine MAGSYM returns: Found  1 space group operations
 (whereof  1 operations were pure point group operations)
 out of a pool of  1 trial space group operations
 (whereof  1 operations were pure point group operations)
 and found also     4 'primitive' translations


The magnetic configuration has the point symmetry C_1 .


 irot  :   1
 --------------------------------------------------------------------
 isymop:   1   0   0
           0   1   0
           0   0   1

 gtrans:     0.0000000     0.0000000     0.0000000

 ptrans:     0.0000000     0.0000000     0.0000000
 rotmap:
 (   1->   1)  (   2->   2)  (   3->   3)  (   4->   4)  (   5->   5) 
 (   6->   6)  (   7->   7)  (   8->   8)  (   9->   9)  (  10->  10) 
 (  11->  11)  (  12->  12)  (  13->  13)  (  14->  14)  (  15->  15) 
 (  16->  16)  (  17->  17)  (  18->  18)  (  19->  19)  (  20->  20) 
 (  21->  21)  (  22->  22)  (  23->  23)  (  24->  24)  (  25->  25) 
 (  26->  26)  (  27->  27)  (  28->  28)  (  29->  29)  (  30->  30) 
 (  31->  31)  (  32->  32)  (  33->  33)  (  34->  34)  (  35->  35) 
 (  36->  36)  (  37->  37)  (  38->  38)  (  39->  39)  (  40->  40) 
 (  41->  41)  (  42->  42)  (  43->  43)  (  44->  44)  (  45->  45) 
 (  46->  46)  (  47->  47)  (  48->  48)  (  49->  49)  (  50->  50) 
 (  51->  51)  (  52->  52)  (  53->  53)  (  54->  54)  (  55->  55) 
 (  56->  56)  (  57->  57)  (  58->  58)  (  59->  59)  (  60->  60) 
 (  61->  61)  (  62->  62)  (  63->  63)  (  64->  64)  (  65->  65) 
 (  66->  66)  (  67->  67)  (  68->  68)  (  69->  69)  (  70->  70) 
 (  71->  71)  (  72->  72)  (  73->  73)  (  74->  74)  (  75->  75) 
 (  76->  76)  (  77->  77)  (  78->  78)  (  79->  79)  (  80->  80) 
 (  81->  81)  (  82->  82)  (  83->  83)  (  84->  84)  (  85->  85) 
 (  86->  86)  (  87->  87)  (  88->  88)  (  89->  89)  (  90->  90) 
 (  91->  91)  (  92->  92)  (  93->  93)  (  94->  94)  (  95->  95) 
 (  96->  96)  (  97->  97)  (  98->  98)  (  99->  99)  ( 100-> 100) 
 ( 101-> 101)  ( 102-> 102)  ( 103-> 103)  ( 104-> 104)  ( 105-> 105) 
 ( 106-> 106)  ( 107-> 107)  ( 108-> 108)  ( 109-> 109)  ( 110-> 110) 
 ( 111-> 111)  ( 112-> 112)  ( 113-> 113)  ( 114-> 114)  ( 115-> 115) 
 ( 116-> 116)  ( 117-> 117)  ( 118-> 118)  ( 119-> 119)  ( 120-> 120) 

 ptrans:     0.5000000     0.0000000     0.0000000
 rotmap:
 (   1->  13)  (   2->  14)  (   3->  15)  (   4->  16)  (   5->  17) 
 (   6->  18)  (   7->  19)  (   8->  20)  (   9->  21)  (  10->  22) 
 (  11->  23)  (  12->  24)  (  13->   1)  (  14->   2)  (  15->   3) 
 (  16->   4)  (  17->   5)  (  18->   6)  (  19->   7)  (  20->   8) 
 (  21->   9)  (  22->  10)  (  23->  11)  (  24->  12)  (  25->  37) 
 (  26->  38)  (  27->  39)  (  28->  40)  (  29->  41)  (  30->  42) 
 (  31->  43)  (  32->  44)  (  33->  45)  (  34->  46)  (  35->  47) 
 (  36->  48)  (  37->  25)  (  38->  26)  (  39->  27)  (  40->  28) 
 (  41->  29)  (  42->  30)  (  43->  31)  (  44->  32)  (  45->  33) 
 (  46->  34)  (  47->  35)  (  48->  36)  (  49->  67)  (  50->  68) 
 (  51->  69)  (  52->  70)  (  53->  71)  (  54->  72)  (  55->  73) 
 (  56->  74)  (  57->  75)  (  58->  76)  (  59->  77)  (  60->  78) 
 (  61->  79)  (  62->  80)  (  63->  81)  (  64->  82)  (  65->  83) 
 (  66->  84)  (  67->  49)  (  68->  50)  (  69->  51)  (  70->  52) 
 (  71->  53)  (  72->  54)  (  73->  55)  (  74->  56)  (  75->  57) 
 (  76->  58)  (  77->  59)  (  78->  60)  (  79->  61)  (  80->  62) 
 (  81->  63)  (  82->  64)  (  83->  65)  (  84->  66)  (  85-> 103) 
 (  86-> 104)  (  87-> 105)  (  88-> 106)  (  89-> 107)  (  90-> 108) 
 (  91-> 109)  (  92-> 110)  (  93-> 111)  (  94-> 112)  (  95-> 113) 
 (  96-> 114)  (  97-> 115)  (  98-> 116)  (  99-> 117)  ( 100-> 118) 
 ( 101-> 119)  ( 102-> 120)  ( 103->  85)  ( 104->  86)  ( 105->  87) 
 ( 106->  88)  ( 107->  89)  ( 108->  90)  ( 109->  91)  ( 110->  92) 
 ( 111->  93)  ( 112->  94)  ( 113->  95)  ( 114->  96)  ( 115->  97) 
 ( 116->  98)  ( 117->  99)  ( 118-> 100)  ( 119-> 101)  ( 120-> 102) 

 ptrans:     0.0000000     0.5000000     0.0000000
 rotmap:
 (   1->  25)  (   2->  26)  (   3->  27)  (   4->  28)  (   5->  29) 
 (   6->  30)  (   7->  31)  (   8->  32)  (   9->  33)  (  10->  34) 
 (  11->  35)  (  12->  36)  (  13->  37)  (  14->  38)  (  15->  39) 
 (  16->  40)  (  17->  41)  (  18->  42)  (  19->  43)  (  20->  44) 
 (  21->  45)  (  22->  46)  (  23->  47)  (  24->  48)  (  25->   1) 
 (  26->   2)  (  27->   3)  (  28->   4)  (  29->   5)  (  30->   6) 
 (  31->   7)  (  32->   8)  (  33->   9)  (  34->  10)  (  35->  11) 
 (  36->  12)  (  37->  13)  (  38->  14)  (  39->  15)  (  40->  16) 
 (  41->  17)  (  42->  18)  (  43->  19)  (  44->  20)  (  45->  21) 
 (  46->  22)  (  47->  23)  (  48->  24)  (  49->  85)  (  50->  86) 
 (  51->  87)  (  52->  88)  (  53->  89)  (  54->  90)  (  55->  91) 
 (  56->  92)  (  57->  93)  (  58->  94)  (  59->  95)  (  60->  96) 
 (  61->  97)  (  62->  98)  (  63->  99)  (  64-> 100)  (  65-> 101) 
 (  66-> 102)  (  67-> 103)  (  68-> 104)  (  69-> 105)  (  70-> 106) 
 (  71-> 107)  (  72-> 108)  (  73-> 109)  (  74-> 110)  (  75-> 111) 
 (  76-> 112)  (  77-> 113)  (  78-> 114)  (  79-> 115)  (  80-> 116) 
 (  81-> 117)  (  82-> 118)  (  83-> 119)  (  84-> 120)  (  85->  49) 
 (  86->  50)  (  87->  51)  (  88->  52)  (  89->  53)  (  90->  54) 
 (  91->  55)  (  92->  56)  (  93->  57)  (  94->  58)  (  95->  59) 
 (  96->  60)  (  97->  61)  (  98->  62)  (  99->  63)  ( 100->  64) 
 ( 101->  65)  ( 102->  66)  ( 103->  67)  ( 104->  68)  ( 105->  69) 
 ( 106->  70)  ( 107->  71)  ( 108->  72)  ( 109->  73)  ( 110->  74) 
 ( 111->  75)  ( 112->  76)  ( 113->  77)  ( 114->  78)  ( 115->  79) 
 ( 116->  80)  ( 117->  81)  ( 118->  82)  ( 119->  83)  ( 120->  84) 

 ptrans:     0.5000000     0.5000000     0.0000000
 rotmap:
 (   1->  37)  (   2->  38)  (   3->  39)  (   4->  40)  (   5->  41) 
 (   6->  42)  (   7->  43)  (   8->  44)  (   9->  45)  (  10->  46) 
 (  11->  47)  (  12->  48)  (  13->  25)  (  14->  26)  (  15->  27) 
 (  16->  28)  (  17->  29)  (  18->  30)  (  19->  31)  (  20->  32) 
 (  21->  33)  (  22->  34)  (  23->  35)  (  24->  36)  (  25->  13) 
 (  26->  14)  (  27->  15)  (  28->  16)  (  29->  17)  (  30->  18) 
 (  31->  19)  (  32->  20)  (  33->  21)  (  34->  22)  (  35->  23) 
 (  36->  24)  (  37->   1)  (  38->   2)  (  39->   3)  (  40->   4) 
 (  41->   5)  (  42->   6)  (  43->   7)  (  44->   8)  (  45->   9) 
 (  46->  10)  (  47->  11)  (  48->  12)  (  49-> 103)  (  50-> 104) 
 (  51-> 105)  (  52-> 106)  (  53-> 107)  (  54-> 108)  (  55-> 109) 
 (  56-> 110)  (  57-> 111)  (  58-> 112)  (  59-> 113)  (  60-> 114) 
 (  61-> 115)  (  62-> 116)  (  63-> 117)  (  64-> 118)  (  65-> 119) 
 (  66-> 120)  (  67->  85)  (  68->  86)  (  69->  87)  (  70->  88) 
 (  71->  89)  (  72->  90)  (  73->  91)  (  74->  92)  (  75->  93) 
 (  76->  94)  (  77->  95)  (  78->  96)  (  79->  97)  (  80->  98) 
 (  81->  99)  (  82-> 100)  (  83-> 101)  (  84-> 102)  (  85->  67) 
 (  86->  68)  (  87->  69)  (  88->  70)  (  89->  71)  (  90->  72) 
 (  91->  73)  (  92->  74)  (  93->  75)  (  94->  76)  (  95->  77) 
 (  96->  78)  (  97->  79)  (  98->  80)  (  99->  81)  ( 100->  82) 
 ( 101->  83)  ( 102->  84)  ( 103->  49)  ( 104->  50)  ( 105->  51) 
 ( 106->  52)  ( 107->  53)  ( 108->  54)  ( 109->  55)  ( 110->  56) 
 ( 111->  57)  ( 112->  58)  ( 113->  59)  ( 114->  60)  ( 115->  61) 
 ( 116->  62)  ( 117->  63)  ( 118->  64)  ( 119->  65)  ( 120->  66) 
 
 
 KPOINTS: kpoints                                 

Automatic generation of k-mesh.
Space group operators:
 irot       det(A)        alpha          n_x          n_y          n_z        tau_x        tau_y        tau_z
    1     1.000000     0.000000     1.000000     0.000000     0.000000     0.000000     0.000000     0.000000
 
 Subroutine IBZKPT returns following result:
 ===========================================
 
 Found      5 irreducible k-points:
 
 Following reciprocal coordinates:
            Coordinates               Weight
  0.000000  0.000000  0.000000      1.000000
  0.333333  0.000000  0.000000      2.000000
  0.000000  0.333333  0.000000      2.000000
  0.333333  0.333333  0.000000      2.000000
 -0.333333  0.333333  0.000000      2.000000
 
 Following cartesian coordinates:
            Coordinates               Weight
  0.000000  0.000000  0.000000      1.000000
  0.033113  0.019118  0.000000      2.000000
  0.000000  0.038235  0.000000      2.000000
  0.033113  0.057353  0.000000      2.000000
 -0.033113  0.019118  0.000000      2.000000
 


--------------------------------------------------------------------------------------------------------




 Dimension of arrays:
   k-points           NKPTS =      5   k-points in BZ     NKDIM =      5   number of bands    NBANDS=    664
   number of dos      NEDOS =    301   number of ions     NIONS =    120
   non local maximal  LDIM  =      6   non local SUM 2l+1 LMDIM =     18
   total plane-waves  NPLWV = 756000
   max r-space proj   IRMAX =   2632   max aug-charges    IRDMAX=   6801
   dimension x,y,z NGX =    60 NGY =   60 NGZ =  210
   dimension x,y,z NGXF=   120 NGYF=  120 NGZF=  420
   support grid    NGXF=   120 NGYF=  120 NGZF=  420
   ions per type =              48  72
 NGX,Y,Z   is equivalent  to a cutoff of   9.75,  9.75,  9.33 a.u.
 NGXF,Y,Z  is equivalent  to a cutoff of  19.50, 19.50, 18.66 a.u.


 I would recommend the setting:
   dimension x,y,z NGX =    57 NGY =   57 NGZ =  209
 SYSTEM =  fe2O3 (0001) surface scan               
 POSCAR =   Fe2O3 Fe terminated slab, 24 A vacuum l

 Startparameter for this run:
   NWRITE =      2    write-flag & timer
   PREC   = normal    normal or accurate (medium, high low for compatibility)
   ISTART =      1    job   : 0-new  1-cont  2-samecut
   ICHARG =      1    charge: 1-file 2-atom 10-const
   ISPIN  =      2    spin polarized calculation?
   LNONCOLLINEAR =      F non collinear calculations
   LSORBIT =      F    spin-orbit coupling
   INIWAV =      1    electr: 0-lowe 1-rand  2-diag
   LASPH  =      T    aspherical Exc in radial PAW
   METAGGA=      F    non-selfconsistent MetaGGA calc.

 Electronic Relaxation 1
   ENCUT  =  520.0 eV  38.22 Ry    6.18 a.u.  19.02 19.02 69.56*2*pi/ulx,y,z
   ENINI  =  520.0     initial cutoff
   ENAUG  =  605.4 eV  augmentation charge cutoff
   NELM   =     60;   NELMIN=  8; NELMDL=  0     # of ELM steps 
   EDIFF  = 0.1E-04   stopping-criterion for ELM
   LREAL  =      T    real-space projection
   NLSPLINE    = F    spline interpolate recip. space projectors
   LCOMPAT=      F    compatible to vasp.4.4
   GGA_COMPAT  = T    GGA compatible to vasp.4.4-vasp.4.6
   LMAXPAW     = -100 max onsite density
   LMAXMIX     =    2 max onsite mixed and CHGCAR
   VOSKOWN=      1    Vosko Wilk Nusair interpolation
   ROPT   =   -0.00050  -0.00050
 Ionic relaxation
   EDIFFG = -.1E-01   stopping-criterion for IOM
   NSW    =     50    number of steps for IOM
   NBLOCK =      1;   KBLOCK =     50    inner block; outer block 
   IBRION =      2    ionic relax: 0-MD 1-quasi-New 2-CG
   NFREE  =      1    steps in history (QN), initial steepest desc. (CG)
   ISIF   =      2    stress and relaxation
   IWAVPR =     11    prediction:  0-non 1-charg 2-wave 3-comb
   ISYM   =      2    0-nonsym 1-usesym 2-fastsym
   LCORR  =      T    Harris-Foulkes like correction to forces

   POTIM  = 0.1000    time-step for ionic-motion
   TEIN   =    0.0    initial temperature
   TEBEG  =    0.0;   TEEND  =   0.0 temperature during run
   SMASS  =  -3.00    Nose mass-parameter (am)
   estimated Nose-frequenzy (Omega)   =  0.10E-29 period in steps =****** mass=  -0.239E-26a.u.
   SCALEE = 1.0000    scale energy and forces
   NPACO  =    256;   APACO  = 16.0  distance and # of slots for P.C.
   PSTRESS=    0.0 pullay stress

  Mass of Ions in am
   POMASS =  55.85 16.00
  Ionic Valenz
   ZVAL   =  14.00  6.00
  Atomic Wigner-Seitz radii
   RWIGS  =  -1.00 -1.00
  virtual crystal weights 
   VCA    =   1.00  1.00
   NELECT =    1104.0000    total number of electrons
   NUPDOWN=       0.0000    fix difference up-down

 DOS related values:
   EMIN   =  10.00;   EMAX   =-10.00  energy-range for DOS
   EFERMI =   0.00
   ISMEAR =     0;   SIGMA  =   0.10  broadening in eV -4-tet -1-fermi 0-gaus

 Electronic relaxation 2 (details)
   IALGO  =     38    algorithm
   LDIAG  =      T    sub-space diagonalisation (order eigenvalues)
   LSUBROT=      T    optimize rotation matrix (better conditioning)
   TURBO    =      0    0=normal 1=particle mesh
   IRESTART =      0    0=no restart 2=restart with 2 vectors
   NREBOOT  =      0    no. of reboots
   NMIN     =      0    reboot dimension
   EREF     =   0.00    reference energy to select bands
   IMIX   =      4    mixing-type and parameters
     AMIX     =   0.20;   BMIX     =  0.00
     AMIX_MAG =   0.80;   BMIX_MAG =  0.00
     AMIN     =   0.10
     WC   =   100.;   INIMIX=   1;  MIXPRE=   1;  MAXMIX= -45

 Intra band minimization:
   WEIMIN = 0.0010     energy-eigenvalue tresh-hold
   EBREAK =  0.38E-08  absolut break condition
   DEPER  =   0.30     relativ break condition  

   TIME   =   0.40     timestep for ELM

  volume/ion in A,a.u.               =      28.26       190.73
  Fermi-wavevector in a.u.,A,eV,Ry     =   1.126154  2.128123 17.255223  1.268223
  Thomas-Fermi vector in A             =   2.262835
 
 Write flags
   LWAVE  =      T    write WAVECAR
   LCHARG =      T    write CHGCAR
   LVTOT  =      F    write LOCPOT, total local potential
   LVHAR  =      F    write LOCPOT, Hartree potential only
   LELF   =      F    write electronic localiz. function (ELF)
   LORBIT =      0    0 simple, 1 ext, 2 COOP (PROOUT)


 Dipole corrections
   LMONO  =      F    monopole corrections only (constant potential shift)
   LDIPOL =      F    correct potential (dipole corrections)
   IDIPOL =      0    1-x, 2-y, 3-z, 4-all directions 
   EPSILON=  1.0000000 bulk dielectric constant

 LDA+U is selected, type is set to LDAUTYPE =  2
   angular momentum for each species LDAUL =     2    1
   U (eV)           for each species LDAUU =   4.2  0.0
   J (eV)           for each species LDAUJ =   0.0  0.0
 Exchange correlation treatment:
   GGA     =    --    GGA type
   LEXCH   =     8    internal setting for exchange type
   VOSKOWN=      1    Vosko Wilk Nusair interpolation
   LHFCALC =     F    Hartree Fock is set to
   LHFONE  =     F    Hartree Fock one center treatment
   AEXX    =    0.0000 exact exchange contribution

 Linear response parameters
   LEPSILON=     F    determine dielectric tensor
   LRPA    =     F    only Hartree local field effects (RPA)
   LNABLA  =     F    use nabla operator in PAW spheres
   LVEL    =     F    velocity operator in full k-point grid
   LINTERFAST=   F  fast interpolation
   KINTER  =     0    interpolate to denser k-point grid
   CSHIFT  =0.1000    complex shift for real part using Kramers Kronig
   OMEGAMAX=  -1.0    maximum frequency
   DEG_THRESHOLD= 0.2000000E-02 threshold for treating states as degnerate
   RTIME   =    0.100 relaxation time in fs

 Orbital magnetization related:
   ORBITALMAG=     F  switch on orbital magnetization
   LCHIMAG   =     F  perturbation theory with respect to B field
   DQ        =  0.001000  dq finite difference perturbation B field



--------------------------------------------------------------------------------------------------------


 conjugate gradient relaxation of ions
   using selective dynamics as specified on POSCAR
 charge density and potential will be updated during run
 spin polarized calculation
 Variant of blocked Davidson
 Davidson routine will perform the subspace rotation
 perform sub-space diagonalisation
    after iterative eigenvector-optimisation
 modified Broyden-mixing scheme, WC =      100.0
 initial mixing is a Kerker type mixing with AMIX =  0.2000 and BMIX =      0.0001
 Hartree-type preconditioning will be used
 using additional bands          112
 real space projection scheme for non local part
 use partial core corrections
 calculate Harris-corrections to forces 
   (improved forces if not selfconsistent)
 use gradient corrections 
 use of overlap-Matrix (Vanderbilt PP)
 Gauss-broadening in eV      SIGMA  =   0.10


--------------------------------------------------------------------------------------------------------


  energy-cutoff  :      520.00
  volume of cell :     3391.56
      direct lattice vectors                 reciprocal lattice vectors
    10.231375053  0.000000000  0.000000000     0.097738573  0.056429392  0.000000000
    -5.115687526  8.860630712  0.000000000     0.000000000  0.112858783  0.000000000
     0.000000000  0.000000000 37.411182240     0.000000000  0.000000000  0.026729976

  length of vectors
    10.231375053 10.231375053 37.411182240     0.112858783  0.112858783  0.026729976


 
 old parameters found on file WAVECAR:
  energy-cutoff  :      520.00
  volume of cell :     3391.56
      direct lattice vectors                 reciprocal lattice vectors
    10.231375053  0.000000000  0.000000000     0.097738573  0.056429392  0.000000000
    -5.115687526  8.860630712  0.000000000     0.000000000  0.112858783  0.000000000
     0.000000000  0.000000000 37.411182240     0.000000000  0.000000000  0.026729976

  length of vectors

 
 k-points in units of 2pi/SCALE and weight: kpoints                                 
   0.00000000  0.00000000  0.00000000       0.111
   0.03311253  0.01911753  0.00000000       0.222
   0.00000000  0.03823505  0.00000000       0.222
   0.03311253  0.05735258  0.00000000       0.222
  -0.03311253  0.01911753  0.00000000       0.222
 
 k-points in reciprocal lattice and weights: kpoints                                 
   0.00000000  0.00000000  0.00000000       0.111
   0.33333333  0.00000000  0.00000000       0.222
   0.00000000  0.33333333  0.00000000       0.222
   0.33333333  0.33333333  0.00000000       0.222
  -0.33333333  0.33333333  0.00000000       0.222
 
 position of ions in fractional coordinates (direct lattice) 
   0.02662044  0.04443947  0.13883399
   0.02708620  0.04475458  0.24723443
   0.02612081  0.04398392  0.06311510
   0.02712409  0.04477849  0.32296253
   0.36049613  0.21148651  0.26207530
   0.36047480  0.21147641  0.35368136
   0.36008030  0.21121150  0.18477367
   0.35955062  0.21071933  0.07283491
   0.19277105  0.37721233  0.03232756
   0.19318411  0.37767832  0.12398927
   0.19380786  0.37811325  0.31321917
   0.19356017  0.37791601  0.20128835
   0.52662044  0.04443947  0.13883399
   0.52708620  0.04475458  0.24723443
   0.52612081  0.04398392  0.06311510
   0.52712409  0.04477849  0.32296253
   0.86049613  0.21148651  0.26207530
   0.86047480  0.21147641  0.35368136
   0.86008030  0.21121150  0.18477367
   0.85955062  0.21071933  0.07283491
   0.69277105  0.37721233  0.03232756
   0.69318411  0.37767832  0.12398927
   0.69380786  0.37811325  0.31321917
   0.69356017  0.37791601  0.20128835
   0.02662044  0.54443947  0.13883399
   0.02708620  0.54475458  0.24723443
   0.02612081  0.54398392  0.06311510
   0.02712409  0.54477849  0.32296253
   0.36049613  0.71148651  0.26207530
   0.36047480  0.71147641  0.35368136
   0.36008030  0.71121150  0.18477367
   0.35955062  0.71071933  0.07283491
   0.19277105  0.87721233  0.03232756
   0.19318411  0.87767832  0.12398927
   0.19380786  0.87811325  0.31321917
   0.19356017  0.87791601  0.20128835
   0.52662044  0.54443947  0.13883399
   0.52708620  0.54475458  0.24723443
   0.52612081  0.54398392  0.06311510
   0.52712409  0.54477849  0.32296253
   0.86049613  0.71148651  0.26207530
   0.86047480  0.71147641  0.35368136
   0.86008030  0.71121150  0.18477367
   0.85955062  0.71071933  0.07283491
   0.69277105  0.87721233  0.03232756
   0.69318411  0.87767832  0.12398927
   0.69380786  0.87811325  0.31321917
   0.69356017  0.87791601  0.20128835
   0.18173863  0.04404617  0.09983981
   0.37170506  0.04486388  0.28621845
   0.02645440  0.19972515  0.09985616
   0.02701057  0.38916262  0.28622796
   0.37077588  0.38867318  0.09983765
   0.18263668  0.20017285  0.28620860
   0.01291935  0.21057056  0.22387783
   0.19925784  0.20467384  0.03858011
   0.36102088  0.36470465  0.22387742
   0.36525090  0.05624954  0.03861520
   0.20695782  0.05860975  0.22388828
   0.01376284  0.37072006  0.03861578
   0.35384191  0.38395150  0.34745867
   0.04064877  0.37843774  0.16216997
   0.18795046  0.03242730  0.34745128
   0.19266622  0.22441888  0.16217486
   0.03950070  0.21794865  0.34745504
   0.34675099  0.03048978  0.16219451
   0.68173863  0.04404617  0.09983981
   0.87170506  0.04486388  0.28621845
   0.52645440  0.19972515  0.09985616
   0.52701057  0.38916262  0.28622796
   0.87077588  0.38867318  0.09983765
   0.68263668  0.20017285  0.28620860
   0.51291935  0.21057056  0.22387783
   0.69925784  0.20467384  0.03858011
   0.86102088  0.36470465  0.22387742
   0.86525090  0.05624954  0.03861520
   0.70695782  0.05860975  0.22388828
   0.51376284  0.37072006  0.03861578
   0.85384191  0.38395150  0.34745867
   0.54064877  0.37843774  0.16216997
   0.68795046  0.03242730  0.34745128
   0.69266622  0.22441888  0.16217486
   0.53950070  0.21794865  0.34745504
   0.84675099  0.03048978  0.16219451
   0.18173863  0.54404617  0.09983981
   0.37170506  0.54486388  0.28621845
   0.02645440  0.69972515  0.09985616
   0.02701057  0.88916262  0.28622796
   0.37077588  0.88867318  0.09983765
   0.18263668  0.70017285  0.28620860
   0.01291935  0.71057056  0.22387783
   0.19925784  0.70467384  0.03858011
   0.36102088  0.86470465  0.22387742
   0.36525090  0.55624954  0.03861520
   0.20695782  0.55860975  0.22388828
   0.01376284  0.87072006  0.03861578
   0.35384191  0.88395150  0.34745867
   0.04064877  0.87843774  0.16216997
   0.18795046  0.53242730  0.34745128
   0.19266622  0.72441888  0.16217486
   0.03950070  0.71794865  0.34745504
   0.34675099  0.53048978  0.16219451
   0.68173863  0.54404617  0.09983981
   0.87170506  0.54486388  0.28621845
   0.52645440  0.69972515  0.09985616
   0.52701057  0.88916262  0.28622796
   0.87077588  0.88867318  0.09983765
   0.68263668  0.70017285  0.28620860
   0.51291935  0.71057056  0.22387783
   0.69925784  0.70467384  0.03858011
   0.86102088  0.86470465  0.22387742
   0.86525090  0.55624954  0.03861520
   0.70695782  0.55860975  0.22388828
   0.51376284  0.87072006  0.03861578
   0.85384191  0.88395150  0.34745867
   0.54064877  0.87843774  0.16216997
   0.68795046  0.53242730  0.34745128
   0.69266622  0.72441888  0.16217486
   0.53950070  0.71794865  0.34745504
   0.84675099  0.53048978  0.16219451
 
 position of ions in cartesian coordinates  (Angst):
   0.04502531  0.39376171  5.19394376
   0.04817863  0.39655379  9.24933249
   0.04224379  0.38972531  2.36121059
   0.04844397  0.39676570 12.08241021
   2.60647218  1.87390382  9.80454668
   2.60630562  1.87381440 13.23163785
   2.60362456  1.87146711  6.91260162
   2.60072298  1.86710618  2.72483991
   0.04261249  3.34233912  1.20941234
   0.04445486  3.34646810  4.63858532
   0.04861164  3.35032187 11.71789937
   0.04708643  3.34857421  7.53043508
   5.16071283  0.39376171  5.19394376
   5.16386616  0.39655379  9.24933249
   5.15793132  0.38972531  2.36121059
   5.16413150  0.39676570 12.08241021
   7.72215971  1.87390382  9.80454668
   7.72199315  1.87381440 13.23163785
   7.71931209  1.87146711  6.91260162
   7.71641051  1.86710618  2.72483991
   5.15830002  3.34233912  1.20941234
   5.16014239  3.34646810  4.63858532
   5.16429916  3.35032187 11.71789937
   5.16277396  3.34857421  7.53043508
  -2.51281846  4.82407707  5.19394376
  -2.50966513  4.82686915  9.24933249
  -2.51559997  4.82004067  2.36121059
  -2.50939979  4.82708105 12.08241021
   0.04862842  6.30421918  9.80454668
   0.04846186  6.30412975 13.23163785
   0.04578080  6.30178247  6.91260162
   0.04287922  6.29742153  2.72483991
  -2.51523127  7.77265447  1.20941234
  -2.51338890  7.77678345  4.63858532
  -2.50923213  7.78063722 11.71789937
  -2.51075733  7.77888956  7.53043508
   2.60286907  4.82407707  5.19394376
   2.60602240  4.82686915  9.24933249
   2.60008756  4.82004067  2.36121059
   2.60628774  4.82708105 12.08241021
   5.16431595  6.30421918  9.80454668
   5.16414939  6.30412975 13.23163785
   5.16146833  6.30178247  6.91260162
   5.15856674  6.29742153  2.72483991
   2.60045625  7.77265447  1.20941234
   2.60229862  7.77678345  4.63858532
   2.60645540  7.78063722 11.71789937
   2.60493020  7.77888956  7.53043508
   1.63410964  0.39027682  3.73512540
   3.57354429  0.39752227 10.70777061
  -0.75106656  1.76969076  3.73573700
  -1.71447912  3.44822627 10.70812628
   1.80521649  3.44388955  3.73504443
   0.84460259  1.77365769 10.70740205
  -0.94503051  1.86578797  8.37553419
   0.99163429  1.81353927  1.44332770
   1.82802503  3.23151324  8.37551891
   3.44926385  0.49840638  1.44464037
   1.81763388  0.51931938  8.37592508
  -1.75567527  3.28481359  1.44466195
   1.65611344  3.40205241 12.99883976
  -1.52007644  3.35319709  6.06697025
   1.75710372  0.28732636 12.99856320
   0.82318343  1.98849284  6.06715322
  -0.71081071  1.93116247 12.99870366
   3.39176326  0.27015866  6.06788846
   6.74979716  0.39027682  3.73512540
   8.68923181  0.39752227 10.70777061
   4.36462097  1.76969076  3.73573700
   3.40120841  3.44822627 10.70812628
   6.92090402  3.44388955  3.73504443
   5.96029011  1.77365769 10.70740205
   4.17065701  1.86578797  8.37553419
   6.10732182  1.81353927  1.44332770
   6.94371256  3.23151324  8.37551891
   8.56495137  0.49840638  1.44464037
   6.93332141  0.51931938  8.37592508
   3.36001226  3.28481359  1.44466195
   6.77180096  3.40205241 12.99883976
   3.59561108  3.35319709  6.06697025
   6.87279124  0.28732636 12.99856320
   5.93887096  1.98849284  6.06715322
   4.40487681  1.93116247 12.99870366
   8.50745079  0.27015866  6.06788846
  -0.92373413  4.82059217  3.73512540
   1.01570053  4.82783763 10.70777061
  -3.30891032  6.20000612  3.73573700
  -4.27232288  7.87854163 10.70812628
  -0.75262727  7.87420490  3.73504443
  -1.71324118  6.20397304 10.70740205
  -3.50287428  6.29610333  8.37553419
  -1.56620947  6.24385463  1.44332770
  -0.72981873  7.66182859  8.37551891
   0.89142008  4.92872174  1.44464037
  -0.74020988  4.94963473  8.37592508
  -4.31351903  7.71512894  1.44466195
  -0.90173033  7.83236777 12.99883976
  -4.07792021  7.78351244  6.06697025
  -0.80074005  4.71764171 12.99856320
  -1.73466033  6.41880819  6.06715322
  -3.26865448  6.36147783 12.99870366
   0.83391950  4.70047401  6.06788846
   4.19195340  4.82059217  3.73512540
   6.13138805  4.82783763 10.70777061
   1.80677721  6.20000612  3.73573700
   0.84336464  7.87854163 10.70812628
   4.36306026  7.87420490  3.73504443
   3.40244635  6.20397304 10.70740205
   1.61281325  6.29610333  8.37553419
   3.54947806  6.24385463  1.44332770
   4.38586880  7.66182859  8.37551891
   6.00710761  4.92872174  1.44464037
   4.37547764  4.94963473  8.37592508
   0.80216850  7.71512894  1.44466195
   4.21395720  7.83236777 12.99883976
   1.03776732  7.78351244  6.06697025
   4.31494748  4.71764171 12.99856320
   3.38102720  6.41880819  6.06715322
   1.84703305  6.36147783 12.99870366
   5.94960703  4.70047401  6.06788846
 


--------------------------------------------------------------------------------------------------------


 k-point  1 :   0.0000 0.0000 0.0000  plane waves:   91045
 k-point  2 :   0.3333 0.0000 0.0000  plane waves:   91327
 k-point  3 :   0.0000 0.3333 0.0000  plane waves:   91327
 k-point  4 :   0.3333 0.3333 0.0000  plane waves:   91329
 k-point  5 :  -0.3333 0.3333 0.0000  plane waves:   91327

 maximum and minimum number of plane-waves per node :      7657     7550

 maximum number of plane-waves:     91329
 maximum index in each direction: 
   IXMAX=   19   IYMAX=   19   IZMAX=   69
   IXMIN=  -19   IYMIN=  -19   IZMIN=  -69

 WARNING: aliasing errors must be expected set NGX to  78 to avoid them
 WARNING: aliasing errors must be expected set NGY to  78 to avoid them
 WARNING: aliasing errors must be expected set NGZ to 278 to avoid them
 aliasing errors are usually negligible using standard VASP settings
 and one can safely disregard these warnings

 real space projection operators:
  total allocation   :      21537.06 KBytes
  max/ min on nodes  :       1796.75       1792.19


 parallel 3D FFT for wavefunctions:
    minimum data exchange during FFTs selected (reduces bandwidth)
 parallel 3D FFT for charge:
    minimum data exchange during FFTs selected (reduces bandwidth)


 total amount of memory used by VASP on root node   267240. kBytes
========================================================================

   base      :      30000. kBytes
   nonlr-proj:       7497. kBytes
   fftplans  :       6880. kBytes
   grid      :      17191. kBytes
   one-center:        311. kBytes
   wavefun   :     205361. kBytes
 
 Broyden mixing: mesh for mixing (old mesh)
   NGX = 39   NGY = 39   NGZ =139
  (NGX  =120   NGY  =120   NGZ  =420)
  gives a total of 211419 points

 initial charge density was supplied:
 number of electron    1104.0001118 magnetization      -0.0000392
 keeping initial charge density in first step


--------------------------------------------------------------------------------------------------------


 Maximum index for non-local projection operator          239
 Maximum index for augmentation-charges          352 (set IRDMAX)


--------------------------------------------------------------------------------------------------------


 First call to EWALD:  gamma=   0.118
 Maximum number of real-space cells 4x 4x 1
 Maximum number of reciprocal cells 2x 2x 6

 FEWALD executed in parallel
    FEWALD:  cpu time    0.02: real time    0.02


----------------------------------------- Iteration    1(   1)  ---------------------------------------


    POTLOK:  cpu time    0.45: real time    0.45
    SETDIJ:  cpu time    1.42: real time    1.42
     EDDAV:  cpu time  201.23: real time  201.92
       DOS:  cpu time    0.00: real time    0.00
    CHARGE:  cpu time    4.12: real time    4.13
    MIXING:  cpu time    0.01: real time    0.01
    --------------------------------------------
      LOOP:  cpu time  207.24: real time  207.96

 eigenvalue-minimisations  : 18400
 total energy-change (2. order) :-0.8038098E+03  (-0.1210597E+00)
 number of electron    1104.0001124 magnetization      -0.0000383
 augmentation part      447.2100417 magnetization      -1.3210050

 Broyden mixing:
  rms(total) = 0.25804E+00    rms(broyden)= 0.25722E+00
  rms(prec ) = 0.25926E+00
  weight for this iteration     100.00

 Free energy of the ion-electron system (eV)
  ---------------------------------------------------
  alpha Z        PSCENC =      1941.68382537
  Ewald energy   TEWEN  =   1440194.12676321
  -1/2 Hartree   DENC   =  -1570731.11515147
  -exchange  EXHF       =         0.00000000
  -V(xc)+E(xc)   XCENC  =      5448.65633865
  PAW double counting   =    148196.57597141  -152445.11746508
  entropy T*S    EENTRO =         0.00000000
  eigenvalues    EBANDS =    -22494.44676757
  atomic energy  EATOM  =    149085.82671215
  ---------------------------------------------------
  free energy    TOTEN  =      -803.80977333 eV

  energy without entropy =     -803.80977333  energy(sigma->0) =     -803.80977333


--------------------------------------------------------------------------------------------------------




----------------------------------------- Iteration    1(   2)  ---------------------------------------


    POTLOK:  cpu time    0.43: real time    0.44
    SETDIJ:  cpu time    1.45: real time    1.45
     EDDAV:  cpu time  203.45: real time  204.15
       DOS:  cpu time    0.00: real time    0.00
    CHARGE:  cpu time    4.15: real time    4.16
    MIXING:  cpu time    0.01: real time    0.01
    --------------------------------------------
      LOOP:  cpu time  209.50: real time  210.22

 eigenvalue-minimisations  : 18872
 total energy-change (2. order) :-0.2958418E+01  (-0.8061681E-01)
 number of electron    1104.0001118 magnetization      -0.0000386
 augmentation part      447.7270592 magnetization      -1.2488796

 Broyden mixing:
  rms(total) = 0.19266E+00    rms(broyden)= 0.19231E+00
  rms(prec ) = 0.19289E+00
  weight for this iteration     100.00

 eigenvalues of (default mixing * dielectric matrix)
  average eigenvalue GAMMA=   0.5379
  0.5379

 Free energy of the ion-electron system (eV)
  ---------------------------------------------------
  alpha Z        PSCENC =      1941.68382537
  Ewald energy   TEWEN  =   1440194.12676321
  -1/2 Hartree   DENC   =  -1570710.40178357
  -exchange  EXHF       =         0.00000000
  -V(xc)+E(xc)   XCENC  =      5448.81807302
  PAW double counting   =    148169.88607686  -152413.73257499
  entropy T*S    EENTRO =         0.00000000
  eigenvalues    EBANDS =    -22522.97528311
  atomic energy  EATOM  =    149085.82671215
  ---------------------------------------------------
  free energy    TOTEN  =      -806.76819106 eV

  energy without entropy =     -806.76819106  energy(sigma->0) =     -806.76819106


--------------------------------------------------------------------------------------------------------




----------------------------------------- Iteration    1(   3)  ---------------------------------------


    POTLOK:  cpu time    0.44: real time    0.44
    SETDIJ:  cpu time    1.44: real time    1.45
     EDDAV:  cpu time  188.05: real time  188.84
       DOS:  cpu time    0.00: real time    0.01
    CHARGE:  cpu time    4.13: real time    4.15
    MIXING:  cpu time    0.01: real time    0.01
    --------------------------------------------
      LOOP:  cpu time  194.08: real time  194.90

 eigenvalue-minimisations  : 17160
 total energy-change (2. order) :-0.1364530E+00  (-0.1023699E-01)
 number of electron    1104.0001117 magnetization      -0.0000389
 augmentation part      447.7600379 magnetization      -1.2326170

 Broyden mixing:
  rms(total) = 0.12413E+00    rms(broyden)= 0.12399E+00
  rms(prec ) = 0.12509E+00
  weight for this iteration     100.00

 eigenvalues of (default mixing * dielectric matrix)
  average eigenvalue GAMMA=   0.7000
  0.7000  0.7000

 Free energy of the ion-electron system (eV)
  ---------------------------------------------------
  alpha Z        PSCENC =      1941.68382537
  Ewald energy   TEWEN  =   1440194.12676321
  -1/2 Hartree   DENC   =  -1570717.05244733
  -exchange  EXHF       =         0.00000000
  -V(xc)+E(xc)   XCENC  =      5448.58599970
  PAW double counting   =    148182.54443919  -152426.70982652
  entropy T*S    EENTRO =         0.00000000
  eigenvalues    EBANDS =    -22515.91010983
  atomic energy  EATOM  =    149085.82671215
  ---------------------------------------------------
  free energy    TOTEN  =      -806.90464406 eV

  energy without entropy =     -806.90464406  energy(sigma->0) =     -806.90464406


--------------------------------------------------------------------------------------------------------




----------------------------------------- Iteration    1(   4)  ---------------------------------------


    POTLOK:  cpu time    0.44: real time    0.44
    SETDIJ:  cpu time    1.45: real time    1.45
     EDDAV:  cpu time  170.16: real time  170.79
       DOS:  cpu time    0.00: real time    0.00
    CHARGE:  cpu time    4.13: real time    4.14
    MIXING:  cpu time    0.01: real time    0.01
    --------------------------------------------
      LOOP:  cpu time  176.19: real time  176.85

 eigenvalue-minimisations  : 15120
 total energy-change (2. order) :-0.6962540E-02  (-0.2095957E-02)
 number of electron    1104.0001118 magnetization      -0.0000390
 augmentation part      447.6919477 magnetization      -1.2357375

 Broyden mixing:
  rms(total) = 0.63043E-01    rms(broyden)= 0.63010E-01
  rms(prec ) = 0.63595E-01
  weight for this iteration     100.00

 eigenvalues of (default mixing * dielectric matrix)
  average eigenvalue GAMMA=   0.6913
  0.5977  0.7381  0.7381

 Free energy of the ion-electron system (eV)
  ---------------------------------------------------
  alpha Z        PSCENC =      1941.68382537
  Ewald energy   TEWEN  =   1440194.12676321
  -1/2 Hartree   DENC   =  -1570723.83178691
  -exchange  EXHF       =         0.00000000
  -V(xc)+E(xc)   XCENC  =      5448.45292742
  PAW double counting   =    148195.37817674  -152440.31280025
  entropy T*S    EENTRO =         0.00000000
  eigenvalues    EBANDS =    -22508.23542434
  atomic energy  EATOM  =    149085.82671215
  ---------------------------------------------------
  free energy    TOTEN  =      -806.91160660 eV

  energy without entropy =     -806.91160660  energy(sigma->0) =     -806.91160660


--------------------------------------------------------------------------------------------------------




----------------------------------------- Iteration    1(   5)  ---------------------------------------


    POTLOK:  cpu time    0.44: real time    0.44
    SETDIJ:  cpu time    1.47: real time    1.48
     EDDAV:  cpu time  175.16: real time  175.85
       DOS:  cpu time    0.00: real time    0.00
    CHARGE:  cpu time    4.12: real time    4.13
    MIXING:  cpu time    0.01: real time    0.01
    --------------------------------------------
      LOOP:  cpu time  181.22: real time  181.93

 eigenvalue-minimisations  : 15688
 total energy-change (2. order) :-0.1702791E-02  (-0.7018641E-03)
 number of electron    1104.0001118 magnetization      -0.0000391
 augmentation part      447.7051958 magnetization      -1.2369961

 Broyden mixing:
  rms(total) = 0.61874E-01    rms(broyden)= 0.61869E-01
  rms(prec ) = 0.62310E-01
  weight for this iteration     100.00

 eigenvalues of (default mixing * dielectric matrix)
  average eigenvalue GAMMA=   0.7387
  0.9299  0.9299  0.5476  0.5476

 Free energy of the ion-electron system (eV)
  ---------------------------------------------------
  alpha Z        PSCENC =      1941.68382537
  Ewald energy   TEWEN  =   1440194.12676321
  -1/2 Hartree   DENC   =  -1570724.55277667
  -exchange  EXHF       =         0.00000000
  -V(xc)+E(xc)   XCENC  =      5448.47696970
  PAW double counting   =    148194.55440430  -152439.44263129
  entropy T*S    EENTRO =         0.00000000
  eigenvalues    EBANDS =    -22507.58657617
  atomic energy  EATOM  =    149085.82671215
  ---------------------------------------------------
  free energy    TOTEN  =      -806.91330939 eV

  energy without entropy =     -806.91330939  energy(sigma->0) =     -806.91330939


--------------------------------------------------------------------------------------------------------




----------------------------------------- Iteration    1(   6)  ---------------------------------------


    POTLOK:  cpu time    0.44: real time    0.44
    SETDIJ:  cpu time    1.45: real time    1.45
     EDDAV:  cpu time  193.13: real time  193.88
       DOS:  cpu time    0.00: real time    0.00
    CHARGE:  cpu time    4.13: real time    4.14
    MIXING:  cpu time    0.01: real time    0.01
    --------------------------------------------
      LOOP:  cpu time  199.16: real time  199.93

 eigenvalue-minimisations  : 17712
 total energy-change (2. order) :-0.1173444E-02  (-0.1215531E-03)
 number of electron    1104.0001118 magnetization      -0.0000391
 augmentation part      447.6795366 magnetization      -1.2386029

 Broyden mixing:
  rms(total) = 0.39379E-01    rms(broyden)= 0.39377E-01
  rms(prec ) = 0.39663E-01
  weight for this iteration     100.00

 eigenvalues of (default mixing * dielectric matrix)
  average eigenvalue GAMMA=   0.8384
  1.1572  1.1572  0.6535  0.6535  0.5705

 Free energy of the ion-electron system (eV)
  ---------------------------------------------------
  alpha Z        PSCENC =      1941.68382537
  Ewald energy   TEWEN  =   1440194.12676321
  -1/2 Hartree   DENC   =  -1570727.24783893
  -exchange  EXHF       =         0.00000000
  -V(xc)+E(xc)   XCENC  =      5448.50281072
  PAW double counting   =    148199.25820725  -152444.35955507
  entropy T*S    EENTRO =         0.00000000
  eigenvalues    EBANDS =    -22504.70540754
  atomic energy  EATOM  =    149085.82671215
  ---------------------------------------------------
  free energy    TOTEN  =      -806.91448284 eV

  energy without entropy =     -806.91448284  energy(sigma->0) =     -806.91448284


--------------------------------------------------------------------------------------------------------




----------------------------------------- Iteration    1(   7)  ---------------------------------------


    POTLOK:  cpu time    0.43: real time    0.44
    SETDIJ:  cpu time    1.40: real time    1.40
     EDDAV:  cpu time  177.51: real time  178.08
       DOS:  cpu time    0.00: real time    0.00
    CHARGE:  cpu time    4.14: real time    4.18
    MIXING:  cpu time    0.01: real time    0.01
    --------------------------------------------
      LOOP:  cpu time  183.51: real time  184.12

 eigenvalue-minimisations  : 16024
 total energy-change (2. order) :-0.5648176E-03  (-0.5465232E-04)
 number of electron    1104.0001118 magnetization      -0.0000391
 augmentation part      447.6663747 magnetization      -1.2394585

 Broyden mixing:
  rms(total) = 0.29987E-01    rms(broyden)= 0.29987E-01
  rms(prec ) = 0.30209E-01
  weight for this iteration     100.00

 eigenvalues of (default mixing * dielectric matrix)
  average eigenvalue GAMMA=   0.8611
  1.3447  1.3447  0.6998  0.6998  0.5390  0.5390

 Free energy of the ion-electron system (eV)
  ---------------------------------------------------
  alpha Z        PSCENC =      1941.68382537
  Ewald energy   TEWEN  =   1440194.12676321
  -1/2 Hartree   DENC   =  -1570728.48486760
  -exchange  EXHF       =         0.00000000
  -V(xc)+E(xc)   XCENC  =      5448.54521549
  PAW double counting   =    148201.50824018  -152446.64360625
  entropy T*S    EENTRO =         0.00000000
  eigenvalues    EBANDS =    -22503.47733020
  atomic energy  EATOM  =    149085.82671215
  ---------------------------------------------------
  free energy    TOTEN  =      -806.91504765 eV

  energy without entropy =     -806.91504765  energy(sigma->0) =     -806.91504765


--------------------------------------------------------------------------------------------------------




----------------------------------------- Iteration    1(   8)  ---------------------------------------


    POTLOK:  cpu time    0.44: real time    0.44
    SETDIJ:  cpu time    1.40: real time    1.40
     EDDAV:  cpu time  156.86: real time  157.36
       DOS:  cpu time    0.00: real time    0.00
    CHARGE:  cpu time    4.15: real time    4.17
    MIXING:  cpu time    0.01: real time    0.01
    --------------------------------------------
      LOOP:  cpu time  162.87: real time  163.40

 eigenvalue-minimisations  : 13680
 total energy-change (2. order) :-0.2996171E-03  (-0.9150853E-05)
 number of electron    1104.0001118 magnetization      -0.0000392
 augmentation part      447.6638103 magnetization      -1.2398238

 Broyden mixing:
  rms(total) = 0.26571E-01    rms(broyden)= 0.26571E-01
  rms(prec ) = 0.26777E-01
  weight for this iteration     100.00

 eigenvalues of (default mixing * dielectric matrix)
  average eigenvalue GAMMA=   0.9345
  1.6109  1.6109  0.8062  0.8062  0.5742  0.5742  0.5590

 Free energy of the ion-electron system (eV)
  ---------------------------------------------------
  alpha Z        PSCENC =      1941.68382537
  Ewald energy   TEWEN  =   1440194.12676321
  -1/2 Hartree   DENC   =  -1570729.05299194
  -exchange  EXHF       =         0.00000000
  -V(xc)+E(xc)   XCENC  =      5448.56911709
  PAW double counting   =    148202.17491032  -152447.30103825
  entropy T*S    EENTRO =         0.00000000
  eigenvalues    EBANDS =    -22502.94264522
  atomic energy  EATOM  =    149085.82671215
  ---------------------------------------------------
  free energy    TOTEN  =      -806.91534727 eV

  energy without entropy =     -806.91534727  energy(sigma->0) =     -806.91534727


--------------------------------------------------------------------------------------------------------




----------------------------------------- Iteration    1(   9)  ---------------------------------------


    POTLOK:  cpu time    0.45: real time    0.45
    SETDIJ:  cpu time    1.40: real time    1.40
     EDDAV:  cpu time  140.54: real time  141.09
       DOS:  cpu time    0.00: real time    0.00
    CHARGE:  cpu time    4.14: real time    4.15
    MIXING:  cpu time    0.01: real time    0.01
    --------------------------------------------
      LOOP:  cpu time  146.55: real time  147.12

 eigenvalue-minimisations  : 11824
 total energy-change (2. order) :-0.2564881E-03  (-0.3803328E-05)
 number of electron    1104.0001118 magnetization      -0.0000392
 augmentation part      447.6581486 magnetization      -1.2402274

 Broyden mixing:
  rms(total) = 0.22076E-01    rms(broyden)= 0.22075E-01
  rms(prec ) = 0.22259E-01
  weight for this iteration     100.00

 eigenvalues of (default mixing * dielectric matrix)
  average eigenvalue GAMMA=   0.9721
  1.8400  1.8400  0.8941  0.8941  0.6155  0.6155  0.5388  0.5388

 Free energy of the ion-electron system (eV)
  ---------------------------------------------------
  alpha Z        PSCENC =      1941.68382537
  Ewald energy   TEWEN  =   1440194.12676321
  -1/2 Hartree   DENC   =  -1570729.68982267
  -exchange  EXHF       =         0.00000000
  -V(xc)+E(xc)   XCENC  =      5448.59205004
  PAW double counting   =    148202.92931744  -152448.05034862
  entropy T*S    EENTRO =         0.00000000
  eigenvalues    EBANDS =    -22502.33410067
  atomic energy  EATOM  =    149085.82671215
  ---------------------------------------------------
  free energy    TOTEN  =      -806.91560376 eV

  energy without entropy =     -806.91560376  energy(sigma->0) =     -806.91560376


--------------------------------------------------------------------------------------------------------




----------------------------------------- Iteration    1(  10)  ---------------------------------------


    POTLOK:  cpu time    0.44: real time    0.44
    SETDIJ:  cpu time    1.40: real time    1.41
     EDDAV:  cpu time  141.89: real time  142.35
       DOS:  cpu time    0.00: real time    0.00
    CHARGE:  cpu time    4.12: real time    4.13
    MIXING:  cpu time    0.01: real time    0.01
    --------------------------------------------
      LOOP:  cpu time  147.87: real time  148.36

 eigenvalue-minimisations  : 11976
 total energy-change (2. order) :-0.8794761E-04  (-0.4115696E-05)
 number of electron    1104.0001118 magnetization      -0.0000392
 augmentation part      447.6542297 magnetization      -1.2403698

 Broyden mixing:
  rms(total) = 0.19487E-01    rms(broyden)= 0.19487E-01
  rms(prec ) = 0.19643E-01
  weight for this iteration     100.00

 eigenvalues of (default mixing * dielectric matrix)
  average eigenvalue GAMMA=   1.0459
  2.1636  2.1636  1.0009  1.0009  0.6887  0.6887  0.5699  0.5682  0.5682

 Free energy of the ion-electron system (eV)
  ---------------------------------------------------
  alpha Z        PSCENC =      1941.68382537
  Ewald energy   TEWEN  =   1440194.12676321
  -1/2 Hartree   DENC   =  -1570730.02993418
  -exchange  EXHF       =         0.00000000
  -V(xc)+E(xc)   XCENC  =      5448.60009467
  PAW double counting   =    148203.20416691  -152448.32087706
  entropy T*S    EENTRO =         0.00000000
  eigenvalues    EBANDS =    -22502.00644278
  atomic energy  EATOM  =    149085.82671215
  ---------------------------------------------------
  free energy    TOTEN  =      -806.91569171 eV

  energy without entropy =     -806.91569171  energy(sigma->0) =     -806.91569171


--------------------------------------------------------------------------------------------------------




----------------------------------------- Iteration    1(  11)  ---------------------------------------


    POTLOK:  cpu time    0.44: real time    0.44
    SETDIJ:  cpu time    1.40: real time    1.40
     EDDAV:  cpu time  115.05: real time  115.51
       DOS:  cpu time    0.00: real time    0.00
    CHARGE:  cpu time    4.11: real time    4.12
    MIXING:  cpu time    0.02: real time    0.02
    --------------------------------------------
      LOOP:  cpu time  121.02: real time  121.50

 eigenvalue-minimisations  :  8912
 total energy-change (2. order) :-0.1122440E-03  (-0.1791201E-05)
 number of electron    1104.0001118 magnetization      -0.0000392
 augmentation part      447.6508962 magnetization      -1.2403978

 Broyden mixing:
  rms(total) = 0.16954E-01    rms(broyden)= 0.16954E-01
  rms(prec ) = 0.17092E-01
  weight for this iteration     100.00

 eigenvalues of (default mixing * dielectric matrix)
  average eigenvalue GAMMA=   1.1015
  2.4431  2.4431  1.1304  1.1304  0.7736  0.7736  0.5928  0.5928  0.5675  0.5675

 Free energy of the ion-electron system (eV)
  ---------------------------------------------------
  alpha Z        PSCENC =      1941.68382537
  Ewald energy   TEWEN  =   1440194.12676321
  -1/2 Hartree   DENC   =  -1570730.38744153
  -exchange  EXHF       =         0.00000000
  -V(xc)+E(xc)   XCENC  =      5448.60978147
  PAW double counting   =    148203.21876942  -152448.31375921
  entropy T*S    EENTRO =         0.00000000
  eigenvalues    EBANDS =    -22501.68045483
  atomic energy  EATOM  =    149085.82671215
  ---------------------------------------------------
  free energy    TOTEN  =      -806.91580395 eV

  energy without entropy =     -806.91580395  energy(sigma->0) =     -806.91580395


--------------------------------------------------------------------------------------------------------




----------------------------------------- Iteration    1(  12)  ---------------------------------------


    POTLOK:  cpu time    0.44: real time    0.44
    SETDIJ:  cpu time    1.42: real time    1.43
     EDDAV:  cpu time  114.18: real time  114.59
       DOS:  cpu time    0.00: real time    0.01
    CHARGE:  cpu time    4.13: real time    4.14
    MIXING:  cpu time    0.02: real time    0.02
    --------------------------------------------
      LOOP:  cpu time  120.18: real time  120.62

 eigenvalue-minimisations  :  8816
 total energy-change (2. order) :-0.9090113E-04  (-0.1985037E-05)
 number of electron    1104.0001118 magnetization      -0.0000392
 augmentation part      447.6481396 magnetization      -1.2405514

 Broyden mixing:
  rms(total) = 0.14558E-01    rms(broyden)= 0.14558E-01
  rms(prec ) = 0.14673E-01
  weight for this iteration     100.00

 eigenvalues of (default mixing * dielectric matrix)
  average eigenvalue GAMMA=   1.1610
  2.7420  2.7420  1.2773  1.2773  0.8560  0.8560  0.6468  0.6468  0.5796  0.5735
  0.5735

 Free energy of the ion-electron system (eV)
  ---------------------------------------------------
  alpha Z        PSCENC =      1941.68382537
  Ewald energy   TEWEN  =   1440194.12676321
  -1/2 Hartree   DENC   =  -1570730.60990538
  -exchange  EXHF       =         0.00000000
  -V(xc)+E(xc)   XCENC  =      5448.61406710
  PAW double counting   =    148202.90740418  -152447.97553660
  entropy T*S    EENTRO =         0.00000000
  eigenvalues    EBANDS =    -22501.48922488
  atomic energy  EATOM  =    149085.82671215
  ---------------------------------------------------
  free energy    TOTEN  =      -806.91589485 eV

  energy without entropy =     -806.91589485  energy(sigma->0) =     -806.91589485


--------------------------------------------------------------------------------------------------------




----------------------------------------- Iteration    1(  13)  ---------------------------------------


    POTLOK:  cpu time    0.44: real time    0.44
    SETDIJ:  cpu time    1.43: real time    1.43
     EDDAV:  cpu time  102.92: real time  103.26
       DOS:  cpu time    0.00: real time    0.00
    CHARGE:  cpu time    4.12: real time    4.14
    MIXING:  cpu time    0.02: real time    0.02
    --------------------------------------------
      LOOP:  cpu time  108.94: real time  109.30

 eigenvalue-minimisations  :  7528
 total energy-change (2. order) :-0.3006228E-04  (-0.1333997E-05)
 number of electron    1104.0001118 magnetization      -0.0000392
 augmentation part      447.6486949 magnetization      -1.2405585

 Broyden mixing:
  rms(total) = 0.14109E-01    rms(broyden)= 0.14109E-01
  rms(prec ) = 0.14216E-01
  weight for this iteration     100.00

 eigenvalues of (default mixing * dielectric matrix)
  average eigenvalue GAMMA=   1.1510
  3.0333  3.0333  1.2956  1.2956  0.8457  0.8457  0.6399  0.6399  0.5475  0.5475
  0.5440  0.5440

 Free energy of the ion-electron system (eV)
  ---------------------------------------------------
  alpha Z        PSCENC =      1941.68382537
  Ewald energy   TEWEN  =   1440194.12676321
  -1/2 Hartree   DENC   =  -1570730.66483426
  -exchange  EXHF       =         0.00000000
  -V(xc)+E(xc)   XCENC  =      5448.61527337
  PAW double counting   =    148202.68437665  -152447.74175799
  entropy T*S    EENTRO =         0.00000000
  eigenvalues    EBANDS =    -22501.44628340
  atomic energy  EATOM  =    149085.82671215
  ---------------------------------------------------
  free energy    TOTEN  =      -806.91592491 eV

  energy without entropy =     -806.91592491  energy(sigma->0) =     -806.91592491


--------------------------------------------------------------------------------------------------------




----------------------------------------- Iteration    1(  14)  ---------------------------------------


    POTLOK:  cpu time    0.43: real time    0.43
    SETDIJ:  cpu time    1.42: real time    1.42
     EDDAV:  cpu time  128.35: real time  128.74
       DOS:  cpu time    0.00: real time    0.00
    CHARGE:  cpu time    4.17: real time    4.18
    MIXING:  cpu time    0.02: real time    0.02
    --------------------------------------------
      LOOP:  cpu time  134.40: real time  134.82

 eigenvalue-minimisations  : 10424
 total energy-change (2. order) :-0.1073582E-03  (-0.2693313E-05)
 number of electron    1104.0001118 magnetization      -0.0000392
 augmentation part      447.6438227 magnetization      -1.2408004

 Broyden mixing:
  rms(total) = 0.10272E-01    rms(broyden)= 0.10272E-01
  rms(prec ) = 0.10354E-01
  weight for this iteration     100.00

 eigenvalues of (default mixing * dielectric matrix)
  average eigenvalue GAMMA=   1.3373
  3.8740  3.8740  1.5450  1.5450  1.0179  1.0179  0.7956  0.7956  0.5964  0.5964
  0.5904  0.5904  0.5458

 Free energy of the ion-electron system (eV)
  ---------------------------------------------------
  alpha Z        PSCENC =      1941.68382537
  Ewald energy   TEWEN  =   1440194.12676321
  -1/2 Hartree   DENC   =  -1570731.09447773
  -exchange  EXHF       =         0.00000000
  -V(xc)+E(xc)   XCENC  =      5448.62544755
  PAW double counting   =    148202.63238330  -152447.66927191
  entropy T*S    EENTRO =         0.00000000
  eigenvalues    EBANDS =    -22501.04741420
  atomic energy  EATOM  =    149085.82671215
  ---------------------------------------------------
  free energy    TOTEN  =      -806.91603227 eV

  energy without entropy =     -806.91603227  energy(sigma->0) =     -806.91603227


--------------------------------------------------------------------------------------------------------




----------------------------------------- Iteration    1(  15)  ---------------------------------------


    POTLOK:  cpu time    0.44: real time    0.44
    SETDIJ:  cpu time    1.42: real time    1.42
     EDDAV:  cpu time  171.18: real time  171.76
       DOS:  cpu time    0.00: real time    0.00
    CHARGE:  cpu time    4.12: real time    4.13
    MIXING:  cpu time    0.02: real time    0.02
    --------------------------------------------
      LOOP:  cpu time  177.18: real time  177.79

 eigenvalue-minimisations  : 15288
 total energy-change (2. order) :-0.1330138E-03  (-0.9733829E-05)
 number of electron    1104.0001118 magnetization      -0.0000392
 augmentation part      447.6365557 magnetization      -1.2410931

 Broyden mixing:
  rms(total) = 0.48180E-02    rms(broyden)= 0.48177E-02
  rms(prec ) = 0.48522E-02
  weight for this iteration     100.00

 eigenvalues of (default mixing * dielectric matrix)
  average eigenvalue GAMMA=   1.3027
  4.0098  4.0098  1.6056  1.6056  1.0424  1.0424  0.8014  0.8014  0.6076  0.6076
  0.6168  0.6168  0.4353  0.4353

 Free energy of the ion-electron system (eV)
  ---------------------------------------------------
  alpha Z        PSCENC =      1941.68382537
  Ewald energy   TEWEN  =   1440194.12676321
  -1/2 Hartree   DENC   =  -1570731.77085324
  -exchange  EXHF       =         0.00000000
  -V(xc)+E(xc)   XCENC  =      5448.64639056
  PAW double counting   =    148202.56755455  -152447.57519229
  entropy T*S    EENTRO =         0.00000000
  eigenvalues    EBANDS =    -22500.42136560
  atomic energy  EATOM  =    149085.82671215
  ---------------------------------------------------
  free energy    TOTEN  =      -806.91616529 eV

  energy without entropy =     -806.91616529  energy(sigma->0) =     -806.91616529


--------------------------------------------------------------------------------------------------------




----------------------------------------- Iteration    1(  16)  ---------------------------------------


    POTLOK:  cpu time    0.44: real time    0.44
    SETDIJ:  cpu time    1.42: real time    1.43
     EDDAV:  cpu time  114.38: real time  114.75
       DOS:  cpu time    0.01: real time    0.01
    CHARGE:  cpu time    4.12: real time    4.14
    MIXING:  cpu time    0.02: real time    0.02
    --------------------------------------------
      LOOP:  cpu time  120.39: real time  120.80

 eigenvalue-minimisations  :  8840
 total energy-change (2. order) :-0.1643249E-04  (-0.2382319E-05)
 number of electron    1104.0001118 magnetization      -0.0000392
 augmentation part      447.6361601 magnetization      -1.2411392

 Broyden mixing:
  rms(total) = 0.40787E-02    rms(broyden)= 0.40786E-02
  rms(prec ) = 0.41072E-02
  weight for this iteration     100.00

 eigenvalues of (default mixing * dielectric matrix)
  average eigenvalue GAMMA=   1.3280
  4.1978  4.1978  1.7172  1.7172  1.0928  1.0928  0.8406  0.8406  0.6758  0.6758
  0.5935  0.5933  0.5933  0.5456  0.5456

 Free energy of the ion-electron system (eV)
  ---------------------------------------------------
  alpha Z        PSCENC =      1941.68382537
[...]
   -.885E+02 -.462E+02 -.361E+04   0.981E+02 0.508E+02 0.362E+04   -.952E+01 -.456E+01 -.103E+02   -.698E-03 -.252E-04 0.110E-02
   -.261E+02 -.441E+02 0.688E+03   0.261E+02 0.438E+02 -.688E+03   0.100E-01 0.323E+00 -.284E+00   0.167E-03 0.269E-03 -.144E-03
   -.608E+02 -.296E+02 0.207E+04   0.620E+02 0.313E+02 -.206E+04   -.121E+01 -.163E+01 -.749E+00   0.389E-03 -.289E-03 0.798E-03
   0.611E+02 0.298E+02 -.206E+04   -.623E+02 -.314E+02 0.206E+04   0.125E+01 0.165E+01 0.783E+00   -.395E-03 0.380E-03 -.618E-03
   0.564E+02 -.383E+02 0.206E+04   -.584E+02 0.386E+02 -.206E+04   0.206E+01 -.282E+00 -.769E+00   0.123E-03 0.546E-03 0.985E-03
   -.562E+02 0.376E+02 -.206E+04   0.583E+02 -.378E+02 0.206E+04   -.205E+01 0.222E+00 0.774E+00   -.147E-03 -.573E-03 -.905E-03
   0.436E+01 0.678E+02 0.206E+04   -.351E+01 -.697E+02 -.206E+04   -.844E+00 0.191E+01 -.831E+00   -.540E-03 -.222E-03 0.663E-03
   -.466E+01 -.677E+02 -.206E+04   0.384E+01 0.696E+02 0.206E+04   0.821E+00 -.190E+01 0.778E+00   0.483E-03 0.118E-03 -.106E-02
   -.513E+02 0.850E+00 -.688E+03   0.509E+02 -.103E+01 0.687E+03   0.305E+00 0.186E+00 0.345E+00   0.400E-03 -.174E-04 -.229E-03
   -.845E+02 0.538E+02 0.361E+04   0.932E+02 -.598E+02 -.362E+04   -.871E+01 0.598E+01 0.103E+02   -.329E-03 0.555E-03 -.103E-02
   0.251E+02 -.453E+02 -.688E+03   -.248E+02 0.451E+02 0.688E+03   -.285E+00 0.127E+00 0.307E+00   -.192E-03 0.269E-03 0.100E-03
   -.420E+01 -.997E+02 0.361E+04   0.500E+01 0.110E+03 -.362E+04   -.798E+00 -.105E+02 0.103E+02   -.307E-03 -.690E-03 -.102E-02
   0.261E+02 0.443E+02 -.689E+03   -.261E+02 -.440E+02 0.688E+03   -.273E-01 -.322E+00 0.261E+00   -.182E-03 -.336E-03 0.423E-04
   0.885E+02 0.457E+02 0.361E+04   -.980E+02 -.503E+02 -.362E+04   0.951E+01 0.452E+01 0.103E+02   0.644E-03 0.433E-04 -.123E-02
   0.842E+02 -.537E+02 -.361E+04   -.929E+02 0.597E+02 0.362E+04   0.870E+01 -.597E+01 -.104E+02   0.278E-03 -.601E-03 0.950E-03
   0.512E+02 -.967E+00 0.688E+03   -.509E+02 0.114E+01 -.688E+03   -.293E+00 -.171E+00 -.317E+00   -.283E-03 -.203E-04 0.722E-04
   0.429E+01 0.998E+02 -.361E+04   -.510E+01 -.110E+03 0.362E+04   0.804E+00 0.105E+02 -.103E+02   0.449E-03 0.630E-03 0.124E-02
   -.251E+02 0.451E+02 0.688E+03   0.249E+02 -.449E+02 -.688E+03   0.280E+00 -.153E+00 -.305E+00   0.118E-03 -.323E-03 -.828E-05
   -.885E+02 -.462E+02 -.361E+04   0.981E+02 0.508E+02 0.362E+04   -.952E+01 -.456E+01 -.103E+02   -.699E-03 -.252E-04 0.110E-02
   -.261E+02 -.441E+02 0.688E+03   0.261E+02 0.438E+02 -.688E+03   0.100E-01 0.323E+00 -.284E+00   0.170E-03 0.268E-03 -.143E-03
   -.608E+02 -.296E+02 0.207E+04   0.620E+02 0.313E+02 -.206E+04   -.121E+01 -.163E+01 -.749E+00   0.389E-03 -.290E-03 0.798E-03
   0.611E+02 0.298E+02 -.206E+04   -.623E+02 -.314E+02 0.206E+04   0.125E+01 0.165E+01 0.783E+00   -.394E-03 0.381E-03 -.619E-03
   0.564E+02 -.383E+02 0.206E+04   -.584E+02 0.386E+02 -.206E+04   0.206E+01 -.282E+00 -.769E+00   0.122E-03 0.548E-03 0.986E-03
   -.562E+02 0.376E+02 -.206E+04   0.583E+02 -.378E+02 0.206E+04   -.205E+01 0.222E+00 0.774E+00   -.148E-03 -.574E-03 -.905E-03
   0.436E+01 0.678E+02 0.206E+04   -.351E+01 -.697E+02 -.206E+04   -.844E+00 0.191E+01 -.831E+00   -.539E-03 -.222E-03 0.663E-03
   -.466E+01 -.677E+02 -.206E+04   0.384E+01 0.696E+02 0.206E+04   0.821E+00 -.190E+01 0.778E+00   0.480E-03 0.118E-03 -.106E-02
   -.513E+02 0.850E+00 -.688E+03   0.509E+02 -.103E+01 0.687E+03   0.305E+00 0.186E+00 0.345E+00   0.398E-03 -.201E-04 -.230E-03
   -.845E+02 0.538E+02 0.361E+04   0.932E+02 -.598E+02 -.362E+04   -.871E+01 0.598E+01 0.103E+02   -.328E-03 0.555E-03 -.103E-02
   0.251E+02 -.453E+02 -.688E+03   -.248E+02 0.451E+02 0.688E+03   -.285E+00 0.127E+00 0.307E+00   -.190E-03 0.269E-03 0.999E-04
   -.420E+01 -.997E+02 0.361E+04   0.500E+01 0.110E+03 -.362E+04   -.798E+00 -.105E+02 0.103E+02   -.306E-03 -.689E-03 -.102E-02
   0.261E+02 0.443E+02 -.689E+03   -.261E+02 -.440E+02 0.688E+03   -.273E-01 -.322E+00 0.261E+00   -.183E-03 -.335E-03 0.418E-04
   0.885E+02 0.457E+02 0.361E+04   -.980E+02 -.503E+02 -.362E+04   0.951E+01 0.452E+01 0.103E+02   0.643E-03 0.421E-04 -.123E-02
   0.842E+02 -.537E+02 -.361E+04   -.929E+02 0.597E+02 0.362E+04   0.870E+01 -.597E+01 -.104E+02   0.278E-03 -.600E-03 0.951E-03
   0.512E+02 -.967E+00 0.688E+03   -.509E+02 0.114E+01 -.688E+03   -.293E+00 -.171E+00 -.317E+00   -.285E-03 -.217E-04 0.733E-04
   0.429E+01 0.998E+02 -.361E+04   -.510E+01 -.110E+03 0.362E+04   0.804E+00 0.105E+02 -.103E+02   0.449E-03 0.631E-03 0.124E-02
   -.251E+02 0.451E+02 0.688E+03   0.249E+02 -.449E+02 -.688E+03   0.280E+00 -.153E+00 -.305E+00   0.115E-03 -.324E-03 -.892E-05
   -.885E+02 -.462E+02 -.361E+04   0.981E+02 0.508E+02 0.362E+04   -.952E+01 -.456E+01 -.103E+02   -.700E-03 -.244E-04 0.110E-02
   -.261E+02 -.441E+02 0.688E+03   0.261E+02 0.438E+02 -.688E+03   0.100E-01 0.323E+00 -.284E+00   0.170E-03 0.269E-03 -.143E-03
   -.608E+02 -.296E+02 0.207E+04   0.620E+02 0.313E+02 -.206E+04   -.121E+01 -.163E+01 -.749E+00   0.389E-03 -.291E-03 0.798E-03
   0.611E+02 0.298E+02 -.206E+04   -.623E+02 -.314E+02 0.206E+04   0.125E+01 0.165E+01 0.783E+00   -.397E-03 0.385E-03 -.620E-03
   0.564E+02 -.383E+02 0.206E+04   -.584E+02 0.386E+02 -.206E+04   0.206E+01 -.282E+00 -.769E+00   0.124E-03 0.547E-03 0.984E-03
   -.562E+02 0.376E+02 -.206E+04   0.583E+02 -.378E+02 0.206E+04   -.205E+01 0.222E+00 0.774E+00   -.147E-03 -.569E-03 -.902E-03
   0.436E+01 0.678E+02 0.206E+04   -.351E+01 -.697E+02 -.206E+04   -.844E+00 0.191E+01 -.831E+00   -.536E-03 -.224E-03 0.662E-03
   -.466E+01 -.677E+02 -.206E+04   0.384E+01 0.696E+02 0.206E+04   0.821E+00 -.190E+01 0.778E+00   0.487E-03 0.119E-03 -.106E-02
   -.513E+02 0.850E+00 -.688E+03   0.509E+02 -.103E+01 0.687E+03   0.305E+00 0.186E+00 0.345E+00   0.404E-03 -.174E-04 -.231E-03
   -.845E+02 0.538E+02 0.361E+04   0.932E+02 -.598E+02 -.362E+04   -.871E+01 0.598E+01 0.103E+02   -.328E-03 0.554E-03 -.103E-02
   0.251E+02 -.453E+02 -.688E+03   -.248E+02 0.451E+02 0.688E+03   -.285E+00 0.127E+00 0.307E+00   -.188E-03 0.265E-03 0.103E-03
   -.420E+01 -.997E+02 0.361E+04   0.500E+01 0.110E+03 -.362E+04   -.798E+00 -.105E+02 0.103E+02   -.308E-03 -.689E-03 -.102E-02
   0.261E+02 0.443E+02 -.689E+03   -.261E+02 -.440E+02 0.688E+03   -.273E-01 -.322E+00 0.261E+00   -.180E-03 -.335E-03 0.423E-04
   0.885E+02 0.457E+02 0.361E+04   -.980E+02 -.503E+02 -.362E+04   0.951E+01 0.452E+01 0.103E+02   0.643E-03 0.427E-04 -.123E-02
   0.842E+02 -.537E+02 -.361E+04   -.929E+02 0.597E+02 0.362E+04   0.870E+01 -.597E+01 -.104E+02   0.280E-03 -.603E-03 0.950E-03
   0.512E+02 -.967E+00 0.688E+03   -.509E+02 0.114E+01 -.688E+03   -.293E+00 -.171E+00 -.317E+00   -.286E-03 -.194E-04 0.739E-04
   0.429E+01 0.998E+02 -.361E+04   -.510E+01 -.110E+03 0.362E+04   0.804E+00 0.105E+02 -.103E+02   0.450E-03 0.631E-03 0.124E-02
   -.251E+02 0.451E+02 0.688E+03   0.249E+02 -.449E+02 -.688E+03   0.280E+00 -.153E+00 -.305E+00   0.120E-03 -.325E-03 -.721E-05
   -.885E+02 -.462E+02 -.361E+04   0.981E+02 0.508E+02 0.362E+04   -.952E+01 -.456E+01 -.103E+02   -.698E-03 -.245E-04 0.110E-02
   -.261E+02 -.441E+02 0.688E+03   0.261E+02 0.438E+02 -.688E+03   0.100E-01 0.323E+00 -.284E+00   0.168E-03 0.270E-03 -.141E-03
 -----------------------------------------------------------------------------------------------
   0.746E-01 0.637E+00 0.468E+00   -.178E-11 0.199E-12 -.193E-11   -.332E-01 -.420E+00 -.631E+00   -.872E-03 0.306E-02 0.912E-02
 
 
 POSITION                                       TOTAL-FORCE (eV/Angst)
 -----------------------------------------------------------------------------------
      0.04503      0.39376      5.19394         0.002257      0.000905      0.002418
      0.04818      0.39655      9.24933        -0.001471      0.001331      0.000651
      0.04224      0.38973      2.36121         0.001959     -0.000187      0.000922
      0.04844      0.39677     12.08241        -0.000944     -0.000701     -0.002254
      2.60647      1.87390      9.80455        -0.000666     -0.000400      0.000391
      2.60631      1.87381     13.23164        -0.000442      0.000825     -0.000406
      2.60362      1.87147      6.91260         0.001742     -0.003184      0.001303
      2.60072      1.86711      2.72484        -0.000115     -0.000403      0.001758
      0.04261      3.34234      1.20941         0.001265      0.001370      0.000422
      0.04445      3.34647      4.63859        -0.000856      0.000399      0.001142
      0.04861      3.35032     11.71790        -0.001365     -0.000789     -0.002566
      0.04709      3.34857      7.53044        -0.000774      0.003219      0.000864
      5.16071      0.39376      5.19394         0.002257      0.000905      0.002418
      5.16387      0.39655      9.24933        -0.001471      0.001331      0.000651
      5.15793      0.38973      2.36121         0.001959     -0.000187      0.000922
      5.16413      0.39677     12.08241        -0.000944     -0.000701     -0.002254
      7.72216      1.87390      9.80455        -0.000666     -0.000400      0.000391
      7.72199      1.87381     13.23164        -0.000442      0.000825     -0.000406
      7.71931      1.87147      6.91260         0.001742     -0.003184      0.001303
      7.71641      1.86711      2.72484        -0.000115     -0.000403      0.001758
      5.15830      3.34234      1.20941         0.001265      0.001370      0.000422
      5.16014      3.34647      4.63859        -0.000856      0.000399      0.001142
      5.16430      3.35032     11.71790        -0.001365     -0.000789     -0.002566
      5.16277      3.34857      7.53044        -0.000774      0.003219      0.000864
     -2.51282      4.82408      5.19394         0.002257      0.000905      0.002418
     -2.50967      4.82687      9.24933        -0.001471      0.001331      0.000651
     -2.51560      4.82004      2.36121         0.001959     -0.000187      0.000922
     -2.50940      4.82708     12.08241        -0.000944     -0.000701     -0.002254
      0.04863      6.30422      9.80455        -0.000666     -0.000400      0.000391
      0.04846      6.30413     13.23164        -0.000442      0.000825     -0.000406
      0.04578      6.30178      6.91260         0.001742     -0.003184      0.001303
      0.04288      6.29742      2.72484        -0.000115     -0.000403      0.001758
     -2.51523      7.77265      1.20941         0.001265      0.001370      0.000422
     -2.51339      7.77678      4.63859        -0.000856      0.000399      0.001142
     -2.50923      7.78064     11.71790        -0.001365     -0.000789     -0.002566
     -2.51076      7.77889      7.53044        -0.000774      0.003219      0.000864
      2.60287      4.82408      5.19394         0.002257      0.000905      0.002418
      2.60602      4.82687      9.24933        -0.001471      0.001331      0.000651
      2.60009      4.82004      2.36121         0.001959     -0.000187      0.000922
      2.60629      4.82708     12.08241        -0.000944     -0.000701     -0.002254
      5.16432      6.30422      9.80455        -0.000666     -0.000400      0.000391
      5.16415      6.30413     13.23164        -0.000442      0.000825     -0.000406
      5.16147      6.30178      6.91260         0.001742     -0.003184      0.001303
      5.15857      6.29742      2.72484        -0.000115     -0.000403      0.001758
      2.60046      7.77265      1.20941         0.001265      0.001370      0.000422
      2.60230      7.77678      4.63859        -0.000856      0.000399      0.001142
      2.60646      7.78064     11.71790        -0.001365     -0.000789     -0.002566
      2.60493      7.77889      7.53044        -0.000774      0.003219      0.000864
      1.63411      0.39028      3.73513        -0.000362      0.002926     -0.000437
      3.57354      0.39752     10.70777         0.001761     -0.003561     -0.001174
     -0.75107      1.76969      3.73574         0.000192     -0.000501      0.001145
     -1.71448      3.44823     10.70813        -0.000517     -0.000514      0.001071
      1.80522      3.44389      3.73504         0.002241     -0.000449     -0.001116
      0.84460      1.77366     10.70740        -0.001252      0.000186     -0.000174
     -0.94503      1.86579      8.37553        -0.000210      0.002359      0.000235
      0.99163      1.81354      1.44333         0.001087     -0.001204      0.002077
      1.82803      3.23151      8.37552        -0.000757     -0.000342      0.000612
      3.44926      0.49841      1.44464         0.001285      0.000515     -0.000283
      1.81763      0.51932      8.37593         0.001109     -0.000418     -0.001948
     -1.75568      3.28481      1.44466         0.001208      0.000938      0.003531
      1.65611      3.40205     12.99884        -0.000598     -0.000048     -0.002235
     -1.52008      3.35320      6.06697         0.002805      0.004176      0.001457
      1.75710      0.28733     12.99856        -0.002251     -0.002082     -0.003119
      0.82318      1.98849      6.06715        -0.001825     -0.002775      0.000446
     -0.71081      1.93116     12.99870        -0.002377     -0.001091     -0.002959
      3.39176      0.27016      6.06789        -0.002128     -0.000501     -0.001775
      6.74980      0.39028      3.73513        -0.000362      0.002926     -0.000437
      8.68923      0.39752     10.70777         0.001761     -0.003561     -0.001174
      4.36462      1.76969      3.73574         0.000192     -0.000501      0.001145
      3.40121      3.44823     10.70813        -0.000517     -0.000514      0.001071
      6.92090      3.44389      3.73504         0.002241     -0.000449     -0.001116
      5.96029      1.77366     10.70740        -0.001252      0.000186     -0.000174
      4.17066      1.86579      8.37553        -0.000210      0.002359      0.000235
      6.10732      1.81354      1.44333         0.001087     -0.001204      0.002077
      6.94371      3.23151      8.37552        -0.000757     -0.000342      0.000612
      8.56495      0.49841      1.44464         0.001285      0.000515     -0.000283
      6.93332      0.51932      8.37593         0.001109     -0.000418     -0.001948
      3.36001      3.28481      1.44466         0.001208      0.000938      0.003531
      6.77180      3.40205     12.99884        -0.000598     -0.000048     -0.002235
      3.59561      3.35320      6.06697         0.002805      0.004176      0.001457
      6.87279      0.28733     12.99856        -0.002251     -0.002082     -0.003119
      5.93887      1.98849      6.06715        -0.001825     -0.002775      0.000446
      4.40488      1.93116     12.99870        -0.002377     -0.001091     -0.002959
      8.50745      0.27016      6.06789        -0.002128     -0.000501     -0.001775
     -0.92373      4.82059      3.73513        -0.000362      0.002926     -0.000437
      1.01570      4.82784     10.70777         0.001761     -0.003561     -0.001174
     -3.30891      6.20001      3.73574         0.000192     -0.000501      0.001145
     -4.27232      7.87854     10.70813        -0.000517     -0.000514      0.001071
     -0.75263      7.87420      3.73504         0.002241     -0.000449     -0.001116
     -1.71324      6.20397     10.70740        -0.001252      0.000186     -0.000174
     -3.50287      6.29610      8.37553        -0.000210      0.002359      0.000235
     -1.56621      6.24385      1.44333         0.001087     -0.001204      0.002077
     -0.72982      7.66183      8.37552        -0.000757     -0.000342      0.000612
      0.89142      4.92872      1.44464         0.001285      0.000515     -0.000283
     -0.74021      4.94963      8.37593         0.001109     -0.000418     -0.001948
     -4.31352      7.71513      1.44466         0.001208      0.000938      0.003531
     -0.90173      7.83237     12.99884        -0.000598     -0.000048     -0.002235
     -4.07792      7.78351      6.06697         0.002805      0.004176      0.001457
     -0.80074      4.71764     12.99856        -0.002251     -0.002082     -0.003119
     -1.73466      6.41881      6.06715        -0.001825     -0.002775      0.000446
     -3.26865      6.36148     12.99870        -0.002377     -0.001091     -0.002959
      0.83392      4.70047      6.06789        -0.002128     -0.000501     -0.001775
      4.19195      4.82059      3.73513        -0.000362      0.002926     -0.000437
      6.13139      4.82784     10.70777         0.001761     -0.003561     -0.001174
      1.80678      6.20001      3.73574         0.000192     -0.000501      0.001145
      0.84336      7.87854     10.70813        -0.000517     -0.000514      0.001071
      4.36306      7.87420      3.73504         0.002241     -0.000449     -0.001116
      3.40245      6.20397     10.70740        -0.001252      0.000186     -0.000174
      1.61281      6.29610      8.37553        -0.000210      0.002359      0.000235
      3.54948      6.24385      1.44333         0.001087     -0.001204      0.002077
      4.38587      7.66183      8.37552        -0.000757     -0.000342      0.000612
      6.00711      4.92872      1.44464         0.001285      0.000515     -0.000283
      4.37548      4.94963      8.37593         0.001109     -0.000418     -0.001948
      0.80217      7.71513      1.44466         0.001208      0.000938      0.003531
      4.21396      7.83237     12.99884        -0.000598     -0.000048     -0.002235
      1.03777      7.78351      6.06697         0.002805      0.004176      0.001457
      4.31495      4.71764     12.99856        -0.002251     -0.002082     -0.003119
      3.38103      6.41881      6.06715        -0.001825     -0.002775      0.000446
      1.84703      6.36148     12.99870        -0.002377     -0.001091     -0.002959
      5.94961      4.70047      6.06789        -0.002128     -0.000501     -0.001775
 -----------------------------------------------------------------------------------
    total drift:                                0.040599      0.219832     -0.153728


--------------------------------------------------------------------------------------------------------



  FREE ENERGIE OF THE ION-ELECTRON SYSTEM (eV)
  ---------------------------------------------------
  free  energy   TOTEN  =      -806.91622291 eV

  energy  without entropy=     -806.91622291  energy(sigma->0) =     -806.91622291
 


--------------------------------------------------------------------------------------------------------


    POTLOK:  cpu time    1.81: real time    1.86


--------------------------------------------------------------------------------------------------------




--------------------------------------------------------------------------------------------------------


  
 reached required accuracy - stopping structural energy minimisation
 writing wavefunctions
     LOOP+:  cpu time 3090.97: real time 3174.82
    4ORBIT:  cpu time    0.00: real time    0.00

 total amount of memory used by VASP on root node   267240. kBytes
========================================================================

   base      :      30000. kBytes
   nonlr-proj:       7497. kBytes
   fftplans  :       6880. kBytes
   grid      :      17191. kBytes
   one-center:        311. kBytes
   wavefun   :     205361. kBytes
 
  
  
 General timing and accounting informations for this job:
 ========================================================
  
                  Total CPU time used (sec):     3260.212
                            User time (sec):     3044.381
                          System time (sec):      215.831
                         Elapsed time (sec):     3350.438
  
                   Maximum memory used (kb):      685000.
                   Average memory used (kb):           0.
  
                          Minor page faults:       244042
                          Major page faults:            0
                 Voluntary context switches:      1560643
